version 3
run General-0-20251130-18:23:13-34428
attr configname General
attr datetime 20251130-18:23:13
attr datetimef 20251130-182313
attr experiment General
attr inifile omnetppNewML.ini
attr iterationvars ""
attr iterationvarsd ""
attr iterationvarsf ""
attr measurement ""
attr network modelingproject4sdn.simulations.NetSDN_ML
attr processid 34428
attr repetition 0
attr replication #0
attr resultdir results
attr runnumber 0
attr seedset 0
config network modelingproject4sdn.simulations.NetSDN_ML
config description "SDN Network with ML-based Smart Routing"
config sim-time-limit 300s
config **.vector-recording true
config **.scalar-recording true
config **.controller.discoveryInterval 5s
config **.controller.datasetFile "\"sdn_dataset.csv\""
config **.controller.enableMLRouting false
config **.controller.trainingThreshold 50
config **.controller.energyAwareRouting false
config **.controller.lowBatteryThreshold 20
config **.controller.batteryWeight 0.4
config **.controller.linkQualityWeight 0.3
config **.controller.distanceWeight 0.2
config **.controller.fairnessWeight 0.1
config **.device*.appType "\"App\""
config **.device*.app.destAddresses "\"1 2 3 4 5\""
config **.device*.app.sendIaTime "uniform(2s, 5s)"
config **.device*.app.packetLength "2048 bytes"
config **.device*.routing.sendDiscovery true
config **.device*.routing.discoveryInterval 10s
config **.frameCapacity 100
config **.useCutThroughSwitching false

vector 0 NetSDN_ML.sdn.controller topologyUpdated:vector ETV
attr recordingmode vector
attr title "topology update events"
vector 1 NetSDN_ML.sdn.controller mlPrediction:vector ETV
attr recordingmode vector
attr title "ML routing predictions"
vector 2 NetSDN_ML.device1.app endToEndDelay:vector ETV
attr interpolationmode none
attr recordingmode vector
attr title "end-to-end delay of arrived packets"
attr unit s
vector 3 NetSDN_ML.device2.app endToEndDelay:vector ETV
attr interpolationmode none
attr recordingmode vector
attr title "end-to-end delay of arrived packets"
attr unit s
vector 4 NetSDN_ML.device3.app endToEndDelay:vector ETV
attr interpolationmode none
attr recordingmode vector
attr title "end-to-end delay of arrived packets"
attr unit s
vector 5 NetSDN_ML.device4.app endToEndDelay:vector ETV
attr interpolationmode none
attr recordingmode vector
attr title "end-to-end delay of arrived packets"
attr unit s
vector 6 NetSDN_ML.device5.app endToEndDelay:vector ETV
attr interpolationmode none
attr recordingmode vector
attr title "end-to-end delay of arrived packets"
attr unit s
0	1	1	0
0	2588	6	5
0	9953	11	5
0	11317	16	5
0	11398	21	5
0	11510	26	5
0	11609	31	5
0	11708	36	5
0	11810	41	5
0	11910	46	5
0	12022	51	5
0	12124	56	5
0	12214	61	5
0	12327	66	5
0	12405	71	5
0	12525	76	5
0	12606	81	5
0	12719	86	5
0	12800	91	5
0	12921	96	5
0	12991	101	5
0	13112	106	5
0	13202	111	5
0	13302	116	5
0	13413	121	5
0	13515	126	5
0	13597	131	5
0	13689	136	5
0	13789	141	5
0	13902	146	5
0	13981	151	5
0	14093	156	5
0	14173	161	5
0	14286	166	5
0	14386	171	5
0	14478	176	5
0	14556	181	5
0	14655	186	5
0	14767	191	5
0	14876	196	5
0	14978	201	5
0	15079	206	5
0	15149	211	5
0	15271	216	5
0	15363	221	5
0	15475	226	5
0	15543	231	5
0	15654	236	5
0	15743	241	5
0	15855	246	5
0	15945	251	5
0	16045	256	5
0	16147	261	5
0	16236	266	5
0	16315	271	5
0	16429	276	5
0	16519	281	5
0	16622	286	5
0	16712	291	5
0	16813	296	5
2	95	2.453500675913	0.023440819411
2	3904	7.373448564135	0.017896533874
2	11305	15.640292987157	0.017896533874
2	11316	15.800612809295	0.016970394105
2	11333	16.467930528978	0.023440819411
2	11356	18.668200917952	0.023440819411
2	11372	19.194063480042	0.015780417279
2	11452	22.210144641506	0.017896533874
2	11536	26.599032433862	0.016970394105
2	11798	40.33168654439	0.016970394105
2	11809	40.544888710533	0.017896533874
2	11894	44.33034482568	0.017896533874
2	11948	46.663247344009	0.016970394105
2	12011	50.140083365404	0.015780417279
2	12038	51.108180257887	0.017896533874
2	12180	58.287891011844	0.016970394105
2	12203	60.788005001071	0.016970394105
2	12230	61.182821358965	0.023440819411
2	12326	65.733589396841	0.015780417279
2	12459	72.274138647062	0.017896533874
2	12541	76.448729765864	0.015780417279
2	12622	81.183811323881	0.017896533874
2	12644	81.448576658528	0.015780417279
2	12685	83.236023659762	0.023440819411
2	12708	83.875403057715	0.017896533874
2	12735	86.080304692663	0.017896533874
2	12942	97.954949250707	0.015780417279
2	12968	98.835403488879	0.017896533874
2	13073	104.073989250855	0.016970394105
2	13086	104.873301571963	0.015780417279
2	13128	106.195459401858	0.016970394105
2	13144	107.210624984262	0.015780417279
2	13286	114.384520095019	0.023440819411
2	13412	120.879447767921	0.023440819411
2	13482	123.639449236393	0.023440819411
2	13531	126.693977983147	0.023440819411
2	13542	126.996744374774	0.015780417279
2	13580	129.407603508039	0.023440819411
2	13596	130.804806528304	0.016970394105
2	13634	131.656259828277	0.015780417279
2	13705	136.050625904959	0.015780417279
2	13788	140.759820008362	0.023440819411
2	13836	141.633980871574	0.017896533874
2	13889	145.212302229064	0.017896533874
2	13938	148.497487588948	0.017896533874
2	14075	154.589842508472	0.016970394105
2	14230	161.935273823824	0.015780417279
2	14248	162.783428121049	0.016970394105
2	14302	166.629960209627	0.015780417279
2	14370	169.796737720421	0.017896533874
2	14421	171.582181135604	0.023440819411
2	14740	189.18913223318	0.015780417279
2	14756	190.121481204817	0.023440819411
2	14963	200.837695874196	0.016970394105
2	14977	200.853967100785	0.024913815484
2	15042	204.297226569544	0.017896533874
2	15053	204.587201535857	0.016970394105
2	15193	211.55710232483	0.016970394105
2	15292	217.174332594214	0.023440819411
2	15303	217.588454941316	0.015780417279
2	15410	221.68526084646	0.023440819411
2	15680	236.669265617797	0.023440819411
2	15797	242.575118596129	0.017896533874
2	16039	254.176135777445	0.023440819411
2	16076	257.161719436785	0.015780417279
2	16119	259.993489701928	0.017896533874
2	16314	270.178645190965	0.023440819411
2	16352	271.779290103847	0.015780417279
2	16380	272.819776890489	0.016970394105
2	16411	274.511195191364	0.023440819411
2	16507	280.251220929697	0.015780417279
2	16518	280.473175839676	0.016970394105
2	16563	282.483233415217	0.017896533874
2	16604	284.335151307207	0.016970394105
2	16675	289.149230792342	0.016970394105
2	16701	290.117606290311	0.017896533874
2	16861	298.632669488615	0.023440819411
3	829	3.947550632649	0.027787581676
3	1353	4.686629156806	0.025671465081
3	4130	7.600375247645	0.025671465081
3	9633	10.829553861395	0.025671465081
3	10951	11.510445987464	0.027787581676
5	563	3.410874475188	0.026436386791
5	3352	6.797834625398	0.03273832372
5	10522	11.2920627102	0.026436386791

