version 3
run Inference-0-20251130-19:51:27-57768
attr configname Inference
attr datetime 20251130-19:51:27
attr datetimef 20251130-195127
attr experiment Inference
attr inifile omnetppNewML.ini
attr iterationvars ""
attr iterationvarsd ""
attr iterationvarsf ""
attr measurement ""
attr network modelingproject4sdn.simulations.NetSDN_ML
attr processid 57768
attr repetition 0
attr replication #0
attr resultdir results
attr runnumber 0
attr seedset 0
config description "Inference phase - ML routing (QoS-oriented)"
config sim-time-limit 200s
config **.controller.enableMLRouting true
config **.controller.energyAwareRouting false
config **.controller.trainingThreshold 10
config **.device*.app.sendIaTime "uniform(2s, 5s)"
config network modelingproject4sdn.simulations.NetSDN_ML
config description "SDN Network with ML-based Smart Routing"
config sim-time-limit 300s
config **.vector-recording true
config **.scalar-recording true
config **.controller.discoveryInterval 5s
config **.controller.datasetFile "\"sdn_dataset.csv\""
config **.controller.enableMLRouting false
config **.controller.trainingThreshold 50
config **.controller.energyAwareRouting false
config **.controller.lowBatteryThreshold 20
config **.controller.batteryWeight 0.4
config **.controller.linkQualityWeight 0.3
config **.controller.distanceWeight 0.2
config **.controller.fairnessWeight 0.1
config **.device*.appType "\"App\""
config **.device*.app.destAddresses "\"1 2 3 4 5\""
config **.device*.app.sendIaTime "uniform(2s, 5s)"
config **.device*.app.packetLength "2048 bytes"
config **.device*.routing.sendDiscovery true
config **.device*.routing.discoveryInterval 10s
config **.frameCapacity 100
config **.useCutThroughSwitching false

vector 0 NetSDN_ML.sdn.controller topologyUpdated:vector ETV
attr recordingmode vector
attr title "topology update events"
vector 1 NetSDN_ML.sdn.controller mlPrediction:vector ETV
attr recordingmode vector
attr title "ML routing predictions"
vector 2 NetSDN_ML.device1.app endToEndDelay:vector ETV
attr interpolationmode none
attr recordingmode vector
attr title "end-to-end delay of arrived packets"
attr unit s
vector 3 NetSDN_ML.device2.app endToEndDelay:vector ETV
attr interpolationmode none
attr recordingmode vector
attr title "end-to-end delay of arrived packets"
attr unit s
vector 4 NetSDN_ML.device3.app endToEndDelay:vector ETV
attr interpolationmode none
attr recordingmode vector
attr title "end-to-end delay of arrived packets"
attr unit s
vector 5 NetSDN_ML.device4.app endToEndDelay:vector ETV
attr interpolationmode none
attr recordingmode vector
attr title "end-to-end delay of arrived packets"
attr unit s
vector 6 NetSDN_ML.device5.app endToEndDelay:vector ETV
attr interpolationmode none
attr recordingmode vector
attr title "end-to-end delay of arrived packets"
attr unit s
0	1	1	0
0	129	6	5
0	232	11	5
0	5054	16	5
0	14735	21	5
0	17011	26	5
0	18932	31	5
0	23289	36	5
0	23821	41	5
0	25348	46	5
0	28233	51	5
0	28671	56	5
0	28741	61	5
0	28832	66	5
0	28915	71	5
0	28998	76	5
0	29084	81	5
0	29986	86	5
0	32845	91	5
0	33186	96	5
0	33250	101	5
0	33345	106	5
0	33422	111	5
0	33506	116	5
0	33588	121	5
0	33667	126	5
0	33730	131	5
0	33831	136	5
0	33902	141	5
0	34344	146	5
0	37074	151	5
0	37452	156	5
0	37538	161	5
0	37643	166	5
0	37727	171	5
0	37815	176	5
0	37900	181	5
0	37999	186	5
0	39963	191	5
0	42023	196	5
1	258	11.466238659393	0
1	266	11.483377541875	0
1	274	11.500516424357	0
1	282	11.517655306839	0
1	295	11.534794189321	1
1	303	11.550057287687	1
1	311	11.565320386053	1
1	319	11.580583484419	1
1	332	11.595846582785	1
1	340	11.611109681151	1
1	348	11.626372779517	1
1	356	11.641635877883	1
1	364	11.656898976249	1
1	372	11.672162074615	1
1	380	11.687425172981	1
1	388	11.702688271347	1
1	396	11.717951369713	1
1	404	11.733214468079	1
1	412	11.748477566445	1
1	420	11.763740664811	1
1	428	11.779003763177	1
1	436	11.794266861543	1
1	444	11.809529959909	1
1	452	11.824793058275	1
1	460	11.840056156641	1
1	468	11.855319255007	1
1	476	11.870582353373	1
1	484	11.885845451739	1
1	492	11.901108550105	1
1	500	11.916371648471	1
1	508	11.931634746837	1
1	516	11.946897845203	1
1	524	11.962160943569	1
1	532	11.977424041935	1
1	540	11.992687140301	1
1	553	12.007950238667	1
1	561	12.023213337033	1
1	569	12.038476435399	1
1	577	12.053739533765	1
1	585	12.069002632131	1
1	593	12.084265730497	1
1	601	12.099528828863	1
1	609	12.114791927229	1
1	617	12.130055025595	1
1	625	12.145318123961	1
1	633	12.160581222327	1
1	641	12.175844320693	1
1	649	12.191107419059	1
1	657	12.206370517425	1
1	665	12.221633615791	1
1	673	12.236896714157	1
1	681	12.252159812523	1
1	689	12.267422910889	1
1	697	12.282686009255	1
1	705	12.297949107621	1
1	713	12.313212205987	1
1	721	12.328475304353	1
1	729	12.343738402719	1
1	737	12.359001501085	1
1	745	12.374264599451	1
1	753	12.389527697817	1
1	761	12.404790796183	1
1	769	12.420053894549	1
1	777	12.435316992915	1
1	785	12.450580091281	1
1	793	12.465843189647	1
1	801	12.481106288013	1
1	809	12.496369386379	1
1	817	12.511632484745	1
1	825	12.526895583111	1
1	833	12.542158681477	1
1	841	12.557421779843	1
1	849	12.572684878209	1
1	857	12.587947976575	1
1	865	12.603211074941	1
1	873	12.618474173307	1
1	881	12.633737271673	1
1	889	12.649000370039	1
1	897	12.664263468405	1
1	905	12.679526566771	1
1	913	12.694789665137	1
1	921	12.710052763503	1
1	929	12.725315861869	1
1	937	12.740578960235	1
1	949	12.755842058601	1
1	953	12.759978684985	1
1	964	12.771105156967	1
1	976	12.786368255333	1
1	984	12.801631353699	1
1	992	12.816894452065	1
1	1000	12.832157550431	1
1	1008	12.847420648797	1
1	1016	12.862683747163	1
1	1024	12.877946845529	1
1	1036	12.893209943895	1
1	1039	12.894711188574	1
1	1052	12.908473042261	1
1	1056	12.910372577961	1
1	1068	12.923736140627	1
1	1072	12.925635676327	1
1	1084	12.938999238993	1
1	1088	12.940898774693	1
1	1100	12.954262337359	1
1	1104	12.956161873059	1
1	1116	12.969525435725	1
1	1120	12.971424971425	1
1	1132	12.984788534091	1
1	1136	12.986688069791	1
1	1153	13.000051632457	1
1	1157	13.001951168157	1
1	1169	13.015314730823	1
1	1173	13.017214266523	1
1	1185	13.030577829189	1
1	1189	13.032477364889	1
1	1201	13.045840927555	1
1	1205	13.047740463255	1
1	1217	13.061104025921	1
1	1221	13.063003561621	1
1	1233	13.076367124287	1
1	1237	13.078266659987	1
1	1249	13.091630222653	1
1	1253	13.093529758353	1
1	1265	13.106893321019	1
1	1269	13.108792856719	1
1	1281	13.122156419385	1
1	1285	13.124055955085	1
1	1297	13.137419517751	1
1	1301	13.139319053451	1
1	1313	13.152682616117	1
1	1317	13.154582151817	1
1	1329	13.167945714483	1
1	1333	13.169845250183	1
1	1345	13.183208812849	1
1	1349	13.185108348549	1
1	1361	13.198471911215	1
1	1365	13.200371446915	1
1	1377	13.213735009581	1
1	1381	13.215634545281	1
1	1393	13.228998107947	1
1	1397	13.230897643647	1
1	1409	13.244261206313	1
1	1413	13.246160742013	1
1	1425	13.259524304679	1
1	1429	13.261423840379	1
1	1441	13.274787403045	1
1	1445	13.276686938745	1
1	1457	13.290050501411	1
1	1461	13.291950037111	1
1	1473	13.305313599777	1
1	1477	13.307213135477	1
1	1489	13.320576698143	1
1	1493	13.322476233843	1
1	1505	13.335839796509	1
1	1509	13.337739332209	1
1	1521	13.351102894875	1
1	1525	13.353002430575	1
1	1537	13.366365993241	1
1	1541	13.368265528941	1
1	1553	13.381629091607	1
1	1557	13.383528627307	1
1	1569	13.396892189973	1
1	1573	13.398791725673	1
1	1585	13.412155288339	1
1	1589	13.414054824039	1
1	1601	13.427418386705	1
1	1605	13.429317922405	1
1	1617	13.442681485071	1
1	1621	13.444581020771	1
1	1633	13.457944583437	1
1	1637	13.459844119137	1
1	1649	13.473207681803	1
1	1653	13.475107217503	1
1	1665	13.488470780169	1
1	1669	13.490370315869	1
1	1681	13.503733878535	1
1	1685	13.505633414235	1
1	1697	13.518996976901	1
1	1701	13.520896512601	1
1	1713	13.534260075267	1
1	1717	13.536159610967	1
1	1729	13.549523173633	1
1	1733	13.551422709333	1
1	1745	13.564786271999	1
1	1749	13.566685807699	1
1	1761	13.580049370365	1
1	1765	13.581948906065	1
1	1777	13.595312468731	1
1	1781	13.597212004431	1
1	1793	13.610575567097	1
1	1797	13.612475102797	1
1	1809	13.625838665463	1
1	1813	13.627738201163	1
1	1825	13.641101763829	1
1	1829	13.643001299529	1
1	1841	13.656364862195	1
1	1845	13.658264397895	1
1	1857	13.671627960561	1
1	1861	13.673527496261	1
1	1873	13.686891058927	1
1	1877	13.688790594627	1
1	1889	13.702154157293	1
1	1893	13.704053692993	1
1	1905	13.717417255659	1
1	1909	13.719316791359	1
1	1921	13.732680354025	1
1	1925	13.734579889725	1
1	1937	13.747943452391	1
1	1941	13.749842988091	1
1	1953	13.763206550757	1
1	1957	13.765106086457	1
1	1969	13.778469649123	1
1	1973	13.780369184823	1
1	1985	13.793732747489	1
1	1989	13.795632283189	1
1	2001	13.808995845855	1
1	2005	13.810895381555	1
1	2017	13.824258944221	1
1	2021	13.826158479921	1
1	2033	13.839522042587	1
1	2037	13.841421578287	1
1	2049	13.854785140953	1
1	2053	13.856684676653	1
1	2065	13.870048239319	1
1	2069	13.871947775019	1
1	2081	13.885311337685	1
1	2085	13.887210873385	1
1	2097	13.900574436051	1
1	2101	13.902473971751	1
1	2113	13.915837534417	1
1	2117	13.917737070117	1
1	2129	13.931100632783	1
1	2133	13.933000168483	1
1	2145	13.946363731149	1
1	2149	13.948263266849	1
1	2161	13.961626829515	1
1	2165	13.963526365215	1
1	2177	13.976889927881	1
1	2181	13.978789463581	1
1	2193	13.992153026247	1
1	2197	13.994052561947	1
1	2214	14.007416124613	1
1	2218	14.009315660313	1
1	2230	14.022679222979	1
1	2234	14.024578758679	1
1	2246	14.037942321345	1
1	2250	14.039841857045	1
1	2262	14.053205419711	1
1	2266	14.055104955411	1
1	2278	14.068468518077	1
1	2282	14.070368053777	1
1	2294	14.083731616443	1
1	2298	14.085631152143	1
1	2310	14.098994714809	1
1	2314	14.100894250509	1
1	2326	14.114257813175	1
1	2330	14.116157348875	1
1	2342	14.129520911541	1
1	2346	14.131420447241	1
1	2358	14.144784009907	1
1	2362	14.146683545607	1
1	2374	14.160047108273	1
1	2378	14.161946643973	1
1	2390	14.175310206639	1
1	2394	14.177209742339	1
1	2406	14.190573305005	1
1	2410	14.192472840705	1
1	2422	14.205836403371	1
1	2426	14.207735939071	1
1	2438	14.221099501737	1
1	2442	14.222999037437	1
1	2454	14.236362600103	1
1	2458	14.238262135803	1
1	2470	14.251625698469	1
1	2474	14.253525234169	1
1	2486	14.266888796835	1
1	2490	14.268788332535	1
1	2502	14.282151895201	1
1	2506	14.284051430901	1
1	2518	14.297414993567	1
1	2522	14.299314529267	1
1	2534	14.312678091933	1
1	2538	14.314577627633	1
1	2550	14.327941190299	1
1	2554	14.329840725999	1
1	2566	14.343204288665	1
1	2570	14.345103824365	1
1	2582	14.358467387031	1
1	2586	14.360366922731	1
1	2598	14.373730485397	1
1	2602	14.375630021097	1
1	2614	14.388993583763	1
1	2618	14.390893119463	1
1	2630	14.404256682129	1
1	2634	14.406156217829	1
1	2646	14.419519780495	1
1	2650	14.421419316195	1
1	2662	14.434782878861	1
1	2666	14.436682414561	1
1	2678	14.450045977227	1
1	2682	14.451945512927	1
1	2694	14.465309075593	1
1	2698	14.467208611293	1
1	2710	14.480572173959	1
1	2714	14.482471709659	1
1	2726	14.495835272325	1
1	2730	14.497734808025	1
1	2746	14.511098370691	1
1	2750	14.512997906391	1
1	2753	14.5140155878	0
1	2770	14.526361469057	1
1	2774	14.528261004757	1
1	2778	14.531154470282	0
1	2793	14.541624567423	1
1	2798	14.543524103123	1
1	2802	14.548293352764	0
1	2814	14.556887665789	1
1	2821	14.558787201489	1
1	2829	14.565432235246	0
1	2838	14.572150764155	1
1	2842	14.574050299855	1
1	2857	14.582571117728	0
1	2862	14.587413862521	1
1	2866	14.589313398221	1
1	2882	14.59971000021	0
1	2886	14.602676960887	1
1	2890	14.604576496587	1
1	2906	14.616848882692	0
1	2909	14.617940059253	1
1	2914	14.619839594953	1
1	2930	14.633203157619	1
1	2933	14.633987765174	0
1	2937	14.635102693319	1
1	2954	14.648466255985	1
1	2958	14.650365791685	1
1	2961	14.651126647656	0
1	2978	14.663729354351	1
1	2982	14.665628890051	1
1	2986	14.668265530138	0
1	3001	14.678992452717	1
1	3006	14.680891988417	1
1	3010	14.68540441262	0
1	3022	14.694255551083	1
1	3029	14.696155086783	1
1	3037	14.702543295102	0
1	3046	14.709518649449	1
1	3050	14.711418185149	1
1	3065	14.719682177584	0
1	3070	14.724781747815	1
1	3074	14.726681283515	1
1	3090	14.736821060066	0
1	3094	14.740044846181	1
1	3098	14.741944381881	1
1	3114	14.753959942548	0
1	3117	14.755307944547	1
1	3122	14.757207480247	1
1	3138	14.770571042913	1
1	3141	14.77109882503	0
1	3145	14.772470578613	1
1	3165	14.785834141279	1
1	3169	14.787733676979	1
1	3172	14.788237707512	0
1	3189	14.798660800164	3
1	3193	14.801097239645	1
1	3197	14.802996775345	1
1	3201	14.805376589994	0
1	3217	14.816360338011	1
1	3222	14.818259873711	1
1	3230	14.822515472476	0
1	3248	14.831623436377	1
1	3252	14.833522972077	1
1	3260	14.839654354958	0
1	3269	14.846886534743	1
1	3276	14.848786070443	1
1	3288	14.85679323744	0
1	3293	14.862149633109	1
1	3297	14.864049168809	1
1	3313	14.873932119922	0
1	3317	14.877412731475	1
1	3321	14.879312267175	1
1	3337	14.891071002404	0
1	3340	14.892675829841	1
1	3345	14.894575365541	1
1	3361	14.907938928207	1
1	3364	14.908209884886	0
1	3368	14.909838463907	1
1	3385	14.923202026573	1
1	3389	14.925101562273	1
1	3392	14.925348767368	0
1	3409	14.938465124939	1
1	3413	14.940364660639	1
1	3417	14.94248764985	0
1	3432	14.953728223305	1
1	3437	14.955627759005	1
1	3441	14.959626532332	0
1	3456	14.968991321671	1
1	3460	14.970890857371	1
1	3468	14.976765414814	0
1	3477	14.984254420037	1
1	3484	14.986153955737	1
1	3496	14.993904297296	0
1	3501	14.999517518403	1
1	3510	15.001417054103	1
1	3526	15.011043179778	0
1	3530	15.014780616769	1
1	3534	15.016680152469	1
1	3550	15.02818206226	0
1	3553	15.030043715135	1
1	3558	15.031943250835	1
1	3574	15.045306813501	1
1	3577	15.045320944742	0
1	3581	15.047206349201	1
1	3598	15.060569911867	1
1	3601	15.062459827224	0
1	3605	15.062469447567	1
1	3622	15.075833010233	1
1	3626	15.077732545933	1
1	3629	15.079598709706	0
1	3645	15.091096108599	1
1	3650	15.092995644299	1
1	3654	15.096737592188	0
1	3669	15.106359206965	1
1	3673	15.108258742665	1
1	3681	15.11387647467	0
1	3690	15.121622305331	1
1	3697	15.123521841031	1
1	3709	15.131015357152	0
1	3714	15.136885403697	1
1	3718	15.138784939397	1
1	3734	15.148154239634	0
1	3738	15.152148502063	1
1	3742	15.154048037763	1
1	3758	15.165293122116	0
1	3762	15.167411600429	1
1	3766	15.169311136129	1
1	3782	15.182432004598	0
1	3785	15.182674698795	1
1	3790	15.184574234495	1
1	3806	15.197937797161	1
1	3809	15.19957088708	0
1	3813	15.199837332861	1
1	3830	15.213200895527	1
1	3834	15.215100431227	1
1	3837	15.216709769562	0
1	3854	15.228463993893	1
1	3858	15.230363529593	1
1	3862	15.233848652044	0
1	3877	15.243727092259	1
1	3882	15.245626627959	1
1	3886	15.250987534526	0
1	3898	15.258990190625	1
1	3905	15.260889726325	1
1	3913	15.268126417008	0
1	3922	15.274253288991	1
1	3926	15.276152824691	1
1	3941	15.28526529949	0
1	3946	15.289516387357	1
1	3950	15.291415923057	1
1	3966	15.302404181972	0
1	3970	15.304779485723	1
1	3977	15.306679021423	1
1	3988	15.312917361787	1
1	3998	15.319543064454	0
1	4001	15.320042584089	1
1	4009	15.321942119789	1
1	4029	15.335305682455	1
1	4032	15.336681946936	0
1	4036	15.337205218155	1
1	4053	15.350568780821	1
1	4057	15.352468316521	1
1	4060	15.353820829418	0
1	4077	15.365831879187	1
1	4081	15.367731414887	1
1	4085	15.3709597119	0
1	4100	15.381094977553	1
1	4105	15.382994513253	1
1	4109	15.388098594382	0
1	4121	15.396358075919	1
1	4128	15.398257611619	1
1	4136	15.405237476864	0
1	4145	15.411621174285	1
1	4149	15.413520709985	1
1	4164	15.422376359346	0
1	4169	15.426884272651	1
1	4173	15.428783808351	1
1	4189	15.439515241828	0
1	4193	15.442147371017	1
1	4197	15.444046906717	1
1	4213	15.45665412431	0
1	4216	15.457410469383	1
1	4221	15.459310005083	1
1	4237	15.472673567749	1
1	4240	15.473793006792	0
1	4244	15.474573103449	1
1	4261	15.487936666115	1
1	4265	15.489836201815	1
1	4268	15.490931889274	0
1	4285	15.503199764481	1
1	4289	15.505099300181	1
1	4293	15.508070771756	0
1	4308	15.518462862847	1
1	4313	15.520362398547	1
1	4317	15.525209654238	0
1	4329	15.533725961213	1
1	4336	15.535625496913	1
1	4344	15.54234853672	0
1	4353	15.548989059579	1
1	4357	15.550888595279	1
1	4372	15.559487419202	0
1	4377	15.564252157945	1
1	4381	15.566151693645	1
1	4397	15.576626301684	0
1	4401	15.579515256311	1
1	4405	15.581414792011	1
1	4421	15.593765184166	0
1	4424	15.594778354677	1
1	4429	15.596677890377	1
1	4445	15.610041453043	1
1	4448	15.610904066648	0
1	4452	15.611940988743	1
1	4469	15.625304551409	1
1	4473	15.627204087109	1
1	4476	15.62804294913	0
1	4493	15.640567649775	1
1	4497	15.642467185475	1
1	4501	15.645181831612	0
1	4517	15.653504150377	1
1	4524	15.655830748141	1
1	4529	15.657730283841	1
1	4536	15.662320714094	0
1	4552	15.671093846507	1
1	4559	15.672993382207	1
1	4567	15.679459596576	0
1	4576	15.686356944873	1
1	4580	15.688256480573	1
1	4595	15.696598479058	0
1	4600	15.701620043239	1
1	4604	15.703519578939	1
1	4620	15.71373736154	0
1	4624	15.716883141605	1
1	4628	15.718782677305	1
1	4644	15.730876244022	0
1	4647	15.732146239971	1
1	4652	15.734045775671	1
1	4668	15.747409338337	1
1	4671	15.748015126504	0
1	4675	15.749308874037	1
1	4692	15.762672436703	1
1	4696	15.764571972403	1
1	4699	15.765154008986	0
1	4716	15.777935535069	1
1	4720	15.779835070769	1
1	4724	15.782292891468	0
1	4739	15.793198633435	1
1	4744	15.795098169135	1
1	4748	15.79943177395	0
1	4760	15.808461731801	1
1	4767	15.810361267501	1
1	4775	15.816570656432	0
1	4784	15.823724830167	1
1	4788	15.825624365867	1
1	4803	15.833709538914	0
1	4808	15.838987928533	1
1	4812	15.840887464233	1
1	4828	15.850848421396	0
1	4832	15.854251026899	1
1	4836	15.856150562599	1
1	4852	15.867987303878	0
1	4855	15.869514125265	1
1	4860	15.871413660965	1
1	4876	15.884777223631	1
1	4879	15.88512618636	0
1	4883	15.886676759331	1
1	4900	15.900040321997	1
1	4904	15.901939857697	1
1	4907	15.902265068842	0
1	4924	15.915303420363	1
1	4928	15.917202956063	1
1	4932	15.919403951324	0
1	4947	15.930566518729	1
1	4952	15.932466054429	1
1	4956	15.936542833806	0
1	4971	15.945829617095	1
1	4975	15.947729152795	1
1	4983	15.953681716288	0
1	4992	15.961092715461	1
1	4999	15.962992251161	1
1	5011	15.97082059877	0
1	5016	15.976355813827	1
1	5020	15.978255349527	1
1	5036	15.987959481252	0
1	5040	15.991618912193	1
1	5044	15.993518447893	1
1	5066	16.005098363734	0
1	5069	16.006882010559	1
1	5074	16.008781546259	1
1	5090	16.022145108925	1
1	5093	16.022237246216	0
1	5097	16.024044644625	1
1	5114	16.037408207291	1
1	5118	16.039307742991	1
1	5121	16.039376128698	0
1	5138	16.052671305657	1
1	5142	16.054570841357	1
1	5146	16.05651501118	0
1	5161	16.067934404023	1
1	5166	16.069833939723	1
1	5170	16.073653893662	0
1	5185	16.083197502389	1
1	5189	16.085097038089	1
1	5197	16.090792776144	0
1	5206	16.098460600755	1
1	5213	16.100360136455	1
1	5225	16.107931658626	0
1	5230	16.113723699121	1
1	5234	16.115623234821	1
1	5250	16.125070541108	0
1	5254	16.128986797487	1
1	5258	16.130886333187	1
1	5274	16.14220942359	0
1	5278	16.144249895853	1
1	5282	16.146149431553	1
1	5298	16.159348306072	0
1	5301	16.159512994219	1
1	5306	16.161412529919	1
1	5322	16.174776092585	1
1	5325	16.176487188554	0
1	5329	16.176675628285	1
1	5346	16.190039190951	1
1	5350	16.191938726651	1
1	5353	16.193626071036	0
1	5370	16.205302289317	1
1	5374	16.207201825017	1
1	5378	16.210764953518	0
1	5393	16.220565387683	1
1	5398	16.222464923383	1
1	5402	16.227903836	0
1	5414	16.235828486049	1
1	5421	16.237728021749	1
1	5429	16.245042718482	0
1	5438	16.251091584415	1
1	5442	16.252991120115	1
1	5457	16.262181600964	0
1	5462	16.266354682781	1
1	5466	16.268254218481	1
1	5482	16.279320483446	0
1	5486	16.281617781147	1
1	5490	16.283517316847	1
1	5506	16.296459365928	0
1	5509	16.296880879513	1
1	5514	16.298780415213	1
1	5530	16.312143977879	1
1	5533	16.31359824841	0
1	5537	16.314043513579	1
1	5554	16.327407076245	1
1	5558	16.329306611945	1
1	5561	16.330737130892	0
1	5578	16.342670174611	1
1	5582	16.344569710311	1
1	5586	16.347876013374	0
1	5601	16.357933272977	1
1	5606	16.359832808677	1
1	5610	16.365014895856	0
1	5622	16.373196371343	1
1	5629	16.375095907043	1
1	5637	16.382153778338	0
1	5646	16.388459469709	1
1	5650	16.390359005409	1
1	5665	16.39929266082	0
1	5670	16.403722568075	1
1	5674	16.405622103775	1
1	5690	16.416431543302	0
1	5694	16.418985666441	1
1	5698	16.420885202141	1
1	5714	16.433570425784	0
1	5717	16.434248764807	1
1	5722	16.436148300507	1
1	5738	16.449511863173	1
1	5741	16.450709308266	0
1	5745	16.451411398873	1
1	5762	16.464774961539	1
1	5766	16.466674497239	1
1	5769	16.467848190748	0
1	5786	16.480038059905	1
1	5790	16.481937595605	1
1	5794	16.48498707323	0
1	5809	16.495301158271	1
1	5814	16.497200693971	1
1	5818	16.502125955712	0
1	5830	16.510564256637	1
1	5837	16.512463792337	1
1	5845	16.519264838194	0
1	5854	16.525827355003	1
1	5858	16.527726890703	1
1	5873	16.536403720676	0
1	5878	16.541090453369	1
1	5882	16.542989989069	1
1	5898	16.553542603158	0
1	5902	16.556353551735	1
1	5906	16.558253087435	1
1	5922	16.57068148564	0
1	5925	16.571616650101	1
1	5930	16.573516185801	1
1	5946	16.586879748467	1
1	5949	16.587820368122	0
1	5953	16.588779284167	1
1	5970	16.602142846833	1
1	5974	16.604042382533	1
1	5977	16.604959250604	0
1	5994	16.617405945199	1
1	5998	16.619305480899	1
1	6002	16.622098133086	0
1	6017	16.632669043565	1
1	6022	16.634568579265	1
1	6026	16.639237015568	0
1	6038	16.647932141931	1
1	6045	16.649831677631	1
1	6053	16.65637589805	0
1	6065	16.663195240297	1
1	6069	16.665094775997	1
1	6081	16.671540074105	0
1	6089	16.673514780532	0
1	6094	16.678458338663	1
1	6098	16.680357874363	1
1	6117	16.688678956587	0
1	6122	16.6912649778	0
1	6126	16.693721437029	1
1	6130	16.695620972729	1
1	6150	16.705817839069	0
1	6154	16.708403860282	0
1	6157	16.708984535395	1
1	6162	16.710884071095	1
1	6182	16.722956721551	0
1	6185	16.724247633761	1
1	6189	16.725542742764	0
1	6193	16.726147169461	1
1	6214	16.739510732127	1
1	6217	16.740095604033	0
1	6221	16.741410267827	1
1	6225	16.742681625246	0
1	6246	16.754773830493	1
1	6250	16.756673366193	1
1	6253	16.757234486515	0
1	6258	16.759820507728	0
1	6277	16.770036928859	1
1	6282	16.771936464559	1
1	6286	16.774373368997	0
1	6290	16.77695939021	0
1	6305	16.785300027225	1
1	6313	16.787199562925	1
1	6318	16.791512251479	0
1	6325	16.794098272692	0
1	6334	16.800563125591	1
1	6341	16.802462661291	1
1	6353	16.808651133961	0
1	6361	16.811237155174	0
1	6366	16.815826223957	1
1	6373	16.817725759657	1
1	6389	16.825790016443	0
1	6394	16.828376037656	0
1	6398	16.831089322323	1
1	6402	16.832988858023	1
1	6422	16.842928898925	0
1	6426	16.845514920138	0
1	6429	16.846352420689	1
1	6434	16.848251956389	1
1	6454	16.860067781407	0
1	6457	16.861615519055	1
1	6461	16.86265380262	0
1	6465	16.863515054755	1
1	6486	16.876878617421	1
1	6489	16.877206663889	0
1	6493	16.878778153121	1
1	6497	16.879792685102	0
1	6518	16.892141715787	1
1	6522	16.894041251487	1
1	6525	16.894345546371	0
1	6530	16.896931567584	0
1	6549	16.907404814153	1
1	6554	16.909304349853	1
1	6558	16.911484428853	0
1	6562	16.914070450066	0
1	6577	16.922667912519	1
1	6585	16.924567448219	1
1	6590	16.928623311335	0
1	6597	16.931209332548	0
1	6609	16.937931010885	1
1	6613	16.939830546585	1
1	6625	16.945762193817	0
1	6633	16.94834821503	0
1	6638	16.953194109251	1
1	6645	16.955093644951	1
1	6661	16.962901076299	0
1	6666	16.965487097512	0
1	6670	16.968457207617	1
1	6674	16.970356743317	1
1	6694	16.980039958781	0
1	6698	16.982625979994	0
1	6701	16.983720305983	1
1	6706	16.985619841683	1
1	6726	16.997178841263	0
1	6729	16.998983404349	1
1	6733	16.999764862476	0
1	6742	17.000882940049	1
1	6763	17.014246502715	1
1	6766	17.014317723745	0
1	6770	17.016146038415	1
1	6774	17.016903744958	0
1	6795	17.029509601081	1
1	6799	17.031409136781	1
1	6802	17.031456606227	0
1	6807	17.03404262744	0
1	6826	17.044772699447	1
1	6831	17.046672235147	1
1	6835	17.048595488709	0
1	6839	17.051181509922	0
1	6854	17.060035797813	1
1	6862	17.061935333513	1
1	6867	17.065734371191	0
1	6874	17.068320392404	0
1	6886	17.075298896179	1
1	6890	17.077198431879	1
1	6902	17.082873253673	0
1	6910	17.085459274886	0
1	6915	17.090561994545	1
1	6922	17.092461530245	1
1	6938	17.100012136155	0
1	6943	17.102598157368	0
1	6947	17.105825092911	1
1	6951	17.107724628611	1
1	6971	17.117151018637	0
1	6975	17.11973703985	0
1	6978	17.121088191277	1
1	6983	17.122987726977	1
1	7003	17.134289901119	0
1	7007	17.136351289643	1
1	7010	17.136875922332	0
1	7014	17.138250825343	1
1	7035	17.151428783601	0
1	7038	17.151614388009	1
1	7043	17.153513923709	1
1	7046	17.154014804814	0
1	7067	17.166877486375	1
1	7070	17.168567666083	0
1	7074	17.168777022075	1
1	7079	17.171153687296	0
1	7098	17.182140584741	1
1	7103	17.184040120441	1
1	7106	17.185706548565	0
1	7111	17.188292569778	0
1	7130	17.197403683107	1
1	7137	17.199303218807	1
1	7143	17.202845431047	0
1	7150	17.20543145226	0
1	7158	17.208017473473	1
1	7166	17.212666781473	1
1	7174	17.214566317173	1
1	7183	17.219984313529	0
1	7197	17.222570334742	0
1	7202	17.227929879839	1
1	7209	17.229829415539	1
1	7221	17.237123196011	0
1	7230	17.239709217224	0
1	7234	17.243192978205	1
1	7238	17.245092513905	1
1	7257	17.254262078493	0
1	7262	17.256848099706	0
1	7265	17.258456076571	1
1	7270	17.260355612271	1
1	7290	17.271400960975	0
1	7294	17.273719174937	1
1	7297	17.273986982188	0
1	7301	17.275618710637	1
1	7322	17.288539843457	0
1	7325	17.288982273303	1
1	7330	17.290881809003	1
1	7333	17.29112586467	0
1	7354	17.304245371669	1
1	7357	17.305678725939	0
1	7361	17.306144907369	1
1	7366	17.308264747152	0
1	7385	17.319508470035	1
1	7390	17.321408005735	1
1	7393	17.322817608421	0
1	7398	17.325403629634	0
1	7417	17.334771568401	1
1	7421	17.336671104101	1
1	7426	17.339956490903	0
1	7433	17.342542512116	0
1	7445	17.350034666767	1
1	7453	17.351934202467	1
1	7458	17.357095373385	0
1	7469	17.359681394598	0
1	7474	17.365297765133	1
1	7481	17.367197300833	1
1	7493	17.374234255867	0
1	7502	17.37682027708	0
1	7506	17.380560863499	1
1	7510	17.382460399199	1
1	7529	17.391373138349	0
1	7534	17.393959159562	0
1	7537	17.395823961865	1
1	7542	17.397723497565	1
1	7562	17.408512020831	0
1	7566	17.411087060231	1
1	7569	17.411098042044	0
1	7573	17.412986595931	1
1	7594	17.425650903313	0
1	7597	17.426350158597	1
1	7601	17.428236924526	0
1	7605	17.428249694297	1
1	7626	17.441613256963	1
1	7629	17.442789785795	0
1	7633	17.443512792663	1
1	7637	17.445375807008	0
1	7657	17.456876355329	1
1	7662	17.458775891029	1
1	7665	17.459928668277	0
1	7670	17.46251468949	0
1	7689	17.472139453695	1
1	7693	17.474038989395	1
1	7698	17.477067550759	0
1	7705	17.479653571972	0
1	7717	17.487402552061	1
1	7725	17.489302087761	1
1	7730	17.494206433241	0
1	7741	17.496792454454	0
1	7746	17.502665650427	1
1	7753	17.504565186127	1
1	7765	17.511345315723	0
1	7774	17.513931336936	0
1	7778	17.517928748793	1
1	7782	17.519828284493	1
1	7801	17.528484198205	0
1	7806	17.531070219418	0
1	7810	17.533191847159	1
1	7814	17.535091382859	1
1	7834	17.545623080687	0
1	7838	17.5482091019	0
1	7841	17.548454945525	1
1	7846	17.550354481225	1
1	7866	17.562761963169	0
1	7869	17.563718043891	1
1	7873	17.565347984382	0
1	7877	17.565617579591	1
1	7898	17.578981142257	1
1	7901	17.579900845651	0
1	7905	17.580880677957	1
1	7909	17.582486866864	0
1	7930	17.594244240623	1
1	7934	17.596143776323	1
1	7937	17.597039728133	0
1	7942	17.599625749346	0
1	7961	17.609507338989	1
1	7966	17.611406874689	1
1	7970	17.614178610615	0
1	7974	17.616764631828	0
1	7989	17.624770437355	1
1	7997	17.626669973055	1
1	8002	17.631317493097	0
1	8009	17.63390351431	0
1	8018	17.640033535721	1
1	8025	17.641933071421	1
1	8037	17.648456375579	0
1	8045	17.651042396792	0
1	8050	17.655296634087	1
1	8054	17.657196169787	1
1	8073	17.665595258061	0
1	8078	17.668181279274	0
1	8082	17.670559732453	1
1	8086	17.672459268153	1
1	8106	17.682734140543	0
1	8110	17.685320161756	0
1	8113	17.685822830819	1
1	8118	17.687722366519	1
1	8138	17.699873023025	0
1	8141	17.701085929185	1
1	8145	17.702459044238	0
1	8149	17.702985464885	1
1	8170	17.716349027551	1
1	8173	17.717011905507	0
1	8177	17.718248563251	1
1	8181	17.71959792672	0
1	8202	17.731612125917	1
1	8206	17.733511661617	1
1	8209	17.734150787989	0
1	8214	17.736736809202	0
1	8233	17.746875224283	1
1	8238	17.748774759983	1
1	8242	17.751289670471	0
1	8246	17.753875691684	0
1	8261	17.762138322649	1
1	8269	17.764037858349	1
1	8274	17.768428552953	0
1	8281	17.771014574166	0
1	8290	17.777401421015	1
1	8297	17.779300956715	1
1	8309	17.785567435435	0
1	8317	17.788153456648	0
1	8322	17.792664519381	1
1	8326	17.794564055081	1
1	8345	17.802706317917	0
1	8350	17.80529233913	0
1	8354	17.807927617747	1
1	8358	17.809827153447	1
1	8378	17.819845200399	0
1	8382	17.822431221612	0
1	8385	17.823190716113	1
1	8390	17.825090251813	1
1	8410	17.836984082881	0
1	8413	17.838453814479	1
1	8417	17.839570104094	0
1	8421	17.840353350179	1
1	8442	17.853716912845	1
1	8445	17.854122965363	0
1	8449	17.855616448545	1
1	8453	17.856708986576	0
1	8474	17.868980011211	1
1	8478	17.870879546911	1
1	8481	17.871261847845	0
1	8486	17.873847869058	0
1	8505	17.884243109577	1
1	8510	17.886142645277	1
1	8514	17.888400730327	0
1	8518	17.89098675154	0
1	8533	17.899506207943	1