version 3
run InferenceEnergyAware-0-20251130-19:52:06-57768
attr configname InferenceEnergyAware
attr datetime 20251130-19:52:06
attr datetimef 20251130-195206
attr experiment InferenceEnergyAware
attr inifile omnetppNewML.ini
attr iterationvars ""
attr iterationvarsd ""
attr iterationvarsf ""
attr measurement ""
attr network modelingproject4sdn.simulations.NetSDN_ML
attr processid 57768
attr repetition 0
attr replication #0
attr resultdir results
attr runnumber 0
attr seedset 0
config description "Inference phase - ML routing + energy-aware routing"
config sim-time-limit 200s
config **.controller.enableMLRouting true
config **.controller.energyAwareRouting true
config **.controller.trainingThreshold 10
config **.device*.app.sendIaTime "uniform(2s, 5s)"
config network modelingproject4sdn.simulations.NetSDN_ML
config description "SDN Network with ML-based Smart Routing"
config sim-time-limit 300s
config **.vector-recording true
config **.scalar-recording true
config **.controller.discoveryInterval 5s
config **.controller.datasetFile "\"sdn_dataset.csv\""
config **.controller.enableMLRouting false
config **.controller.trainingThreshold 50
config **.controller.energyAwareRouting false
config **.controller.lowBatteryThreshold 20
config **.controller.batteryWeight 0.4
config **.controller.linkQualityWeight 0.3
config **.controller.distanceWeight 0.2
config **.controller.fairnessWeight 0.1
config **.device*.appType "\"App\""
config **.device*.app.destAddresses "\"1 2 3 4 5\""
config **.device*.app.sendIaTime "uniform(2s, 5s)"
config **.device*.app.packetLength "2048 bytes"
config **.device*.routing.sendDiscovery true
config **.device*.routing.discoveryInterval 10s
config **.frameCapacity 100
config **.useCutThroughSwitching false

vector 0 NetSDN_ML.sdn.controller topologyUpdated:vector ETV
attr recordingmode vector
attr title "topology update events"
vector 1 NetSDN_ML.sdn.controller mlPrediction:vector ETV
attr recordingmode vector
attr title "ML routing predictions"
vector 2 NetSDN_ML.device1.app endToEndDelay:vector ETV
attr interpolationmode none
attr recordingmode vector
attr title "end-to-end delay of arrived packets"
attr unit s
vector 3 NetSDN_ML.device2.app endToEndDelay:vector ETV
attr interpolationmode none
attr recordingmode vector
attr title "end-to-end delay of arrived packets"
attr unit s
vector 4 NetSDN_ML.device3.app endToEndDelay:vector ETV
attr interpolationmode none
attr recordingmode vector
attr title "end-to-end delay of arrived packets"
attr unit s
vector 5 NetSDN_ML.device4.app endToEndDelay:vector ETV
attr interpolationmode none
attr recordingmode vector
attr title "end-to-end delay of arrived packets"
attr unit s
vector 6 NetSDN_ML.device5.app endToEndDelay:vector ETV
attr interpolationmode none
attr recordingmode vector
attr title "end-to-end delay of arrived packets"
attr unit s
0	1	1	0
0	1095	6	5
0	5794	11	5
0	7668	16	5
0	17026	21	5
0	17135	26	5
0	19605	31	5
0	20000	36	5
0	22750	41	5
0	24305	46	5
0	28660	51	5
0	29640	56	5
0	29721	61	5
0	29842	66	5
0	29921	71	5
0	30034	76	5
0	30122	81	5
0	30233	86	5
0	30301	91	5
0	30434	96	5
0	30502	101	5
0	30624	106	5
0	30724	111	5
0	30846	116	5
0	30956	121	5
0	32073	126	5
0	34382	131	5
0	34714	136	5
0	34815	141	5
0	34917	146	5
0	35008	151	5
0	37873	156	5
0	45238	161	5
0	45679	166	5
0	45751	171	5
0	45853	176	5
0	45914	181	5
0	46016	186	5
0	46087	191	5
0	46169	196	5
1	1102	6.002404150788	0
1	1110	6.01954303327	0
1	1118	6.036681915752	0
1	1126	6.053820798234	0
1	1134	6.070959680716	0
1	1142	6.088098563198	0
1	1150	6.10523744568	0
1	1158	6.122376328162	0
1	1166	6.139515210644	0
1	1174	6.156654093126	0
1	1182	6.173792975608	0
1	1190	6.19093185809	0
1	1201	6.208070740572	0
1	1206	6.21689457382	0
1	1214	6.225209623054	0
1	1222	6.234033456302	0
1	1230	6.242348505536	0
1	1238	6.251172338784	0
1	1246	6.259487388018	0
1	1254	6.268311221266	0
1	1262	6.2766262705	0
1	1270	6.285450103748	0
1	1278	6.293765152982	0
1	1286	6.30258898623	0
1	1294	6.310904035464	0
1	1302	6.319727868712	0
1	1310	6.328042917946	0
1	1318	6.336866751194	0
1	1326	6.345181800428	0
1	1334	6.354005633676	0
1	1342	6.36232068291	0
1	1350	6.371144516158	0
1	1358	6.379459565392	0
1	1366	6.38828339864	0
1	1378	6.396598447874	0
1	1386	6.403765427717	0
1	1389	6.405422281122	0
1	1401	6.413737330356	0
1	1416	6.422809782824	0
1	1421	6.430876212838	0
1	1432	6.439948665306	0
1	1437	6.44801509532	0
1	1448	6.457087547788	0
1	1453	6.465153977802	0
1	1464	6.47422643027	0
1	1469	6.482292860284	0
1	1483	6.491365312752	0
1	1489	6.498692253672	0
1	1496	6.501278274885	0
1	1504	6.508504195234	0
1	1519	6.518417157367	0
1	1524	6.525643077716	0
1	1535	6.535556039849	0
1	1540	6.542781960198	0
1	1551	6.552694922331	0
1	1556	6.55992084268	0
1	1567	6.569833804813	0
1	1572	6.577059725162	0
1	1583	6.586972687295	0
1	1588	6.594198607644	0
1	1599	6.604111569777	0
1	1604	6.611337490126	0
1	1615	6.621250452259	0
1	1620	6.628476372608	0
1	1631	6.638389334741	0
1	1636	6.64561525509	0
1	1647	6.655528217223	0
1	1652	6.662754137572	0
1	1663	6.672667099705	0
1	1668	6.679893020054	0
1	1679	6.689805982187	0
1	1684	6.697031902536	0
1	1695	6.706944864669	0
1	1700	6.714170785018	0
1	1711	6.724083747151	0
1	1716	6.7313096675	0
1	1727	6.741222629633	0
1	1732	6.748448549982	0
1	1743	6.758361512115	0
1	1748	6.765587432464	0
1	1759	6.775500394597	0
1	1764	6.782726314946	0
1	1775	6.792639277079	0
1	1780	6.799865197428	0
1	1791	6.809778159561	0
1	1796	6.81700407991	0
1	1807	6.826917042043	0
1	1812	6.834142962392	0
1	1823	6.844055924525	0
1	1828	6.851281844874	0
1	1839	6.861194807007	0
1	1844	6.868420727356	0
1	1855	6.878333689489	0
1	1860	6.885559609838	0
1	1871	6.895472571971	0
1	1876	6.90269849232	0
1	1887	6.912611454453	0
1	1892	6.919837374802	0
1	1903	6.929750336935	0
1	1908	6.936976257284	0
1	1919	6.946889219417	0
1	1924	6.954115139766	0
1	1939	6.964028101899	0
1	1944	6.966385149087	0
1	1948	6.971254022248	0
1	1963	6.981166984381	0
1	1971	6.98839290473	0
1	1982	6.998305866863	0
1	1992	7.005531787212	0
1	2003	7.015444749345	0
1	2008	7.022670669694	0
1	2019	7.032583631827	0
1	2024	7.039809552176	0
1	2035	7.049722514309	0
1	2040	7.056948434658	0
1	2051	7.066861396791	0
1	2056	7.07408731714	0
1	2067	7.084000279273	0
1	2072	7.091226199622	0
1	2083	7.101139161755	0
1	2088	7.108365082104	0
1	2099	7.118278044237	0
1	2104	7.125503964586	0
1	2115	7.135416926719	0
1	2120	7.142642847068	0
1	2131	7.152555809201	0
1	2136	7.15978172955	0
1	2147	7.169694691683	0
1	2152	7.176920612032	0
1	2163	7.186833574165	0
1	2168	7.194059494514	0
1	2179	7.203972456647	0
1	2184	7.211198376996	0
1	2195	7.221111339129	0
1	2200	7.228337259478	0
1	2211	7.238250221611	0
1	2216	7.24547614196	0
1	2227	7.255389104093	0
1	2232	7.262615024442	0
1	2243	7.272527986575	0
1	2248	7.279753906924	0
1	2259	7.289666869057	0
1	2264	7.296892789406	0
1	2275	7.306805751539	0
1	2280	7.314031671888	0
1	2291	7.323944634021	0
1	2296	7.33117055437	0
1	2307	7.341083516503	0
1	2312	7.348309436852	0
1	2323	7.358222398985	0
1	2328	7.365448319334	0
1	2339	7.375361281467	0
1	2344	7.382587201816	0
1	2355	7.392500163949	0
1	2360	7.399726084298	0
1	2371	7.409639046431	0
1	2376	7.41686496678	0
1	2387	7.426777928913	0
1	2392	7.434003849262	0
1	2403	7.443916811395	0
1	2408	7.451142731744	0
1	2419	7.461055693877	0
1	2424	7.468281614226	0
1	2435	7.478194576359	0
1	2440	7.485420496708	0
1	2451	7.495333458841	0
1	2456	7.50255937919	0
1	2467	7.512472341323	0
1	2472	7.519698261672	0
1	2483	7.529611223805	0
1	2488	7.536837144154	0
1	2499	7.546750106287	0
1	2504	7.553976026636	0
1	2515	7.563888988769	0
1	2520	7.571114909118	0
1	2531	7.581027871251	0
1	2536	7.5882537916	0
1	2547	7.598166753733	0
1	2552	7.605392674082	0
1	2563	7.615305636215	0
1	2568	7.622531556564	0
1	2579	7.632444518697	0
1	2584	7.639670439046	0
1	2595	7.649583401179	0
1	2600	7.656809321528	0
1	2611	7.666722283661	0
1	2616	7.67394820401	0
1	2627	7.683861166143	0
1	2632	7.691087086492	0
1	2643	7.701000048625	0
1	2648	7.708225968974	0
1	2659	7.718138931107	0
1	2664	7.725364851456	0
1	2675	7.735277813589	0
1	2680	7.742503733938	0
1	2691	7.752416696071	0
1	2696	7.75964261642	0
1	2707	7.769555578553	0
1	2712	7.776781498902	0
1	2723	7.786694461035	0
1	2728	7.793920381384	0
1	2739	7.803833343517	0
1	2744	7.811059263866	0
1	2755	7.820972225999	0
1	2760	7.828198146348	0
1	2771	7.838111108481	0
1	2776	7.84533702883	0
1	2787	7.855249990963	0
1	2792	7.862475911312	0
1	2803	7.872388873445	0
1	2808	7.879614793794	0
1	2819	7.889527755927	0
1	2824	7.896753676276	0
1	2835	7.906666638409	0
1	2840	7.913892558758	0
1	2851	7.923805520891	0
1	2856	7.93103144124	0
1	2867	7.940944403373	0
1	2872	7.948170323722	0
1	2883	7.958083285855	0
1	2888	7.965309206204	0
1	2899	7.975222168337	0
1	2904	7.982448088686	0
1	2915	7.992361050819	0
1	2920	7.999586971168	0
1	2936	8.009499933301	0
1	2941	8.01672585365	0
1	2952	8.026638815783	0
1	2957	8.033864736132	0
1	2968	8.043777698265	0
1	2973	8.051003618614	0
1	2984	8.060916580747	0
1	2989	8.068142501096	0
1	3000	8.078055463229	0
1	3005	8.085281383578	0
1	3016	8.095194345711	0
1	3021	8.10242026606	0
1	3032	8.112333228193	0
1	3037	8.119559148542	0
1	3048	8.129472110675	0
1	3053	8.136698031024	0
1	3064	8.146610993157	0
1	3069	8.153836913506	0
1	3080	8.163749875639	0
1	3085	8.170975795988	0
1	3096	8.180888758121	0
1	3101	8.18811467847	0
1	3112	8.198027640603	0
1	3117	8.205253560952	0
1	3128	8.215166523085	0
1	3133	8.222392443434	0
1	3144	8.232305405567	0
1	3149	8.239531325916	0
1	3160	8.249444288049	0
1	3165	8.256670208398	0
1	3176	8.266583170531	0
1	3181	8.27380909088	0
1	3192	8.283722053013	0
1	3197	8.290947973362	0
1	3208	8.300860935495	0
1	3213	8.308086855844	0
1	3224	8.317999817977	0
1	3229	8.325225738326	0
1	3240	8.335138700459	0
1	3245	8.342364620808	0
1	3256	8.352277582941	0
1	3261	8.35950350329	0
1	3272	8.369416465423	0
1	3277	8.376642385772	0
1	3288	8.386555347905	0
1	3293	8.393781268254	0
1	3304	8.403694230387	0
1	3309	8.410920150736	0
1	3320	8.420833112869	0
1	3325	8.428059033218	0
1	3336	8.437971995351	0
1	3341	8.4451979157	0
1	3352	8.455110877833	0
1	3357	8.462336798182	0
1	3368	8.472249760315	0
1	3373	8.479475680664	0
1	3384	8.489388642797	0
1	3389	8.496614563146	0
1	3404	8.506527525279	0
1	3409	8.510428032194	0
1	3413	8.513753445628	0
1	3427	8.523666407761	0
1	3432	8.53089232811	0
1	3443	8.540805290243	0
1	3448	8.548031210592	0
1	3459	8.557944172725	0
1	3464	8.565170093074	0
1	3475	8.575083055207	0
1	3480	8.582308975556	0
1	3491	8.592221937689	0
1	3500	8.599447858038	0
1	3508	8.604779562282	0
1	3515	8.609360820171	0
1	3523	8.61658674052	0
1	3538	8.626499702653	0
1	3543	8.633725623002	0
1	3557	8.643638585135	0
1	3563	8.650568814534	0
1	3566	8.650864505484	0
1	3578	8.660777467617	0
1	3590	8.669613169641	0
1	3598	8.677916350099	0
1	3606	8.686752052123	0
1	3614	8.695055232581	0
1	3622	8.703890934605	0
1	3630	8.712194115063	0
1	3638	8.721029817087	0
1	3646	8.729332997545	0
1	3654	8.738168699569	0
1	3662	8.746471880027	0
1	3670	8.755307582051	0
1	3678	8.763610762509	0
1	3686	8.772446464533	0
1	3694	8.780749644991	0
1	3702	8.789585347015	0
1	3710	8.797888527473	0
1	3718	8.806724229497	0
1	3726	8.815027409955	0
1	3734	8.823863111979	0
1	3742	8.832166292437	0
1	3750	8.841001994461	0
1	3758	8.849305174919	0
1	3766	8.858140876943	0
1	3774	8.866444057401	0
1	3782	8.875279759425	0
1	3790	8.883582939883	0
1	3798	8.892418641907	0
1	3806	8.900721822365	0
1	3814	8.909557524389	0
1	3822	8.917860704847	0
1	3830	8.926696406871	0
1	3838	8.934999587329	0
1	3846	8.943835289353	0
1	3854	8.952138469811	0
1	3862	8.960974171835	0
1	3870	8.969277352293	0
1	3878	8.978113054317	0
1	3886	8.986416234775	0
1	3894	8.995251936799	0
1	3907	9.003555117257	0
1	3915	9.012390819281	0
1	3923	9.020693999739	0
1	3931	9.029529701763	0
1	3939	9.037832882221	0
1	3947	9.046668584245	0
1	3955	9.054971764703	0
1	3963	9.063807466727	0
1	3971	9.072110647185	0
1	3979	9.080946349209	0
1	3987	9.089249529667	0
1	3995	9.098085231691	0
1	4003	9.106388412149	0
1	4011	9.115224114173	0
1	4019	9.123527294631	0
1	4027	9.132362996655	0
1	4035	9.140666177113	0
1	4043	9.149501879137	0
1	4051	9.157805059595	0
1	4059	9.166640761619	0
1	4067	9.174943942077	0
1	4075	9.183779644101	0
1	4083	9.192082824559	0
1	4091	9.200918526583	0
1	4099	9.209221707041	0
1	4107	9.218057409065	0
1	4115	9.226360589523	0
1	4123	9.235196291547	0
1	4131	9.243499472005	0
1	4139	9.252335174029	0
1	4147	9.260638354487	0
1	4155	9.269474056511	0
1	4163	9.277777236969	0
1	4171	9.286612938993	0
1	4179	9.294916119451	0
1	4187	9.303751821475	0
1	4195	9.312055001933	0
1	4203	9.320890703957	0
1	4211	9.329193884415	0
1	4219	9.338029586439	0
1	4227	9.346332766897	0
1	4235	9.355168468921	0
1	4243	9.363471649379	0
1	4251	9.372307351403	0
1	4259	9.380610531861	0
1	4267	9.389446233885	0
1	4275	9.397749414343	0
1	4283	9.406585116367	0
1	4291	9.414888296825	0
1	4299	9.423723998849	0
1	4307	9.432027179307	0
1	4315	9.440862881331	0
1	4323	9.449166061789	0
1	4331	9.458001763813	0
1	4339	9.466304944271	0
1	4347	9.475140646295	0
1	4355	9.483443826753	0
1	4363	9.492279528777	0
1	4371	9.500582709235	0
1	4379	9.509418411259	0
1	4387	9.517721591717	0
1	4395	9.526557293741	0
1	4403	9.534860474199	0
1	4411	9.543696176223	0
1	4419	9.551999356681	0
1	4427	9.560835058705	0
1	4435	9.569138239163	0
1	4443	9.577973941187	0
1	4451	9.586277121645	0
1	4459	9.595112823669	0
1	4467	9.603416004127	0
1	4475	9.612251706151	0
1	4483	9.620554886609	0
1	4491	9.629390588633	0
1	4499	9.637693769091	0
1	4507	9.646529471115	0
1	4515	9.654832651573	0
1	4523	9.663668353597	0
1	4531	9.671971534055	0
1	4539	9.680807236079	0
1	4547	9.689110416537	0
1	4555	9.697946118561	0
1	4563	9.706249299019	0
1	4571	9.715085001043	0
1	4579	9.723388181501	0
1	4587	9.732223883525	0
1	4595	9.740527063983	0
1	4603	9.749362766007	0
1	4611	9.757665946465	0
1	4619	9.766501648489	0
1	4627	9.774804828947	0
1	4635	9.783640530971	0
1	4643	9.791943711429	0
1	4651	9.800779413453	0
1	4659	9.809082593911	0
1	4667	9.817918295935	0
1	4675	9.826221476393	0
1	4683	9.835057178417	0
1	4691	9.843360358875	0
1	4699	9.852196060899	0
1	4707	9.860499241357	0
1	4715	9.869334943381	0
1	4723	9.877638123839	0
1	4731	9.886473825863	0
1	4739	9.894777006321	0
1	4747	9.903612708345	0
1	4755	9.911915888803	0
1	4766	9.920751590827	0
1	4775	9.929054771285	0
1	4782	9.931791625055	0
1	4787	9.937890473309	0
1	4798	9.946193653767	0
1	4806	9.955029355791	0
1	4814	9.963332536249	0
1	4822	9.972168238273	0
1	4830	9.980471418731	0
1	4838	9.989307120755	0
1	4846	9.997610301213	0
1	4859	10.006446003237	0
1	4867	10.014749183695	0
1	4875	10.023584885719	0
1	4883	10.031888066177	0
1	4891	10.040723768201	0
1	4899	10.049026948659	0
1	4907	10.057862650683	0
1	4915	10.066165831141	0
1	4923	10.075001533165	0
1	4931	10.083304713623	0
1	4939	10.092140415647	0
1	4947	10.100443596105	0
1	4955	10.109279298129	0
1	4963	10.117582478587	0
1	4971	10.126418180611	0
1	4979	10.134721361069	0
1	4987	10.143557063093	0
1	4995	10.151860243551	0
1	5003	10.160695945575	0
1	5011	10.168999126033	0
1	5019	10.177834828057	0
1	5027	10.186138008515	0
1	5035	10.194973710539	0
1	5043	10.203276890997	0
1	5051	10.212112593021	0
1	5059	10.220415773479	0
1	5067	10.229251475503	0
1	5075	10.237554655961	0
1	5083	10.246390357985	0
1	5091	10.254693538443	0
1	5099	10.263529240467	0
1	5107	10.271832420925	0
1	5115	10.280668122949	0
1	5123	10.288971303407	0
1	5131	10.297807005431	0
1	5139	10.306110185889	0
1	5147	10.314945887913	0
1	5155	10.323249068371	0
1	5163	10.332084770395	0
1	5171	10.340387950853	0
1	5179	10.349223652877	0
1	5187	10.357526833335	0
1	5195	10.366362535359	0
1	5203	10.374665715817	0
1	5211	10.383501417841	0
1	5219	10.391804598299	0
1	5227	10.400640300323	0
1	5235	10.408943480781	0
1	5243	10.417779182805	0
1	5251	10.426082363263	0
1	5259	10.434918065287	0
1	5267	10.443221245745	0
1	5275	10.452056947769	0
1	5283	10.460360128227	0
1	5291	10.469195830251	0
1	5299	10.477499010709	0
1	5307	10.486334712733	0
1	5315	10.494637893191	0
1	5323	10.503473595215	0
1	5331	10.511776775673	0
1	5339	10.520612477697	0
1	5347	10.528915658155	0
1	5355	10.537751360179	0
1	5363	10.546054540637	0
1	5371	10.554890242661	0
1	5379	10.563193423119	0
1	5387	10.572029125143	0
1	5395	10.580332305601	0
1	5403	10.589168007625	0
1	5411	10.597471188083	0
1	5419	10.606306890107	0
1	5427	10.614610070565	0
1	5435	10.623445772589	0
1	5443	10.631748953047	0
1	5451	10.640584655071	0
1	5459	10.648887835529	0
1	5467	10.657723537553	0
1	5475	10.666026718011	0
1	5483	10.674862420035	0
1	5491	10.683165600493	0
1	5499	10.692001302517	0
1	5507	10.700304482975	0
1	5515	10.709140184999	0
1	5523	10.717443365457	0
1	5531	10.726279067481	0
1	5539	10.734582247939	0
1	5547	10.743417949963	0
1	5555	10.751721130421	0
1	5563	10.760556832445	0
1	5571	10.768860012903	0
1	5579	10.777695714927	0
1	5587	10.785998895385	0
1	5595	10.794834597409	0
1	5603	10.803137777867	0
1	5611	10.811973479891	0
1	5619	10.820276660349	0
1	5627	10.829112362373	0
1	5635	10.837415542831	0
1	5643	10.846251244855	0
1	5651	10.854554425313	0
1	5659	10.863390127337	0
1	5667	10.871693307795	0
1	5675	10.880529009819	0
1	5683	10.888832190277	0
1	5691	10.897667892301	0
1	5699	10.905971072759	0
1	5707	10.914806774783	0
1	5715	10.923109955241	0
1	5723	10.931945657265	0
1	5731	10.940248837723	0
1	5739	10.949084539747	0
1	5747	10.957387720205	0
1	5755	10.966223422229	0
1	5763	10.974526602687	0
1	5774	10.983362304711	0
1	5783	10.991608660024	0
1	5786	10.991665485169	0
1	5801	11.000501187193	0
1	5815	11.010653015131	0
1	5820	11.017640069675	0
1	5831	11.027791897613	0
1	5836	11.034778952157	0
1	5847	11.044930780095	0
1	5852	11.051917834639	0
1	5863	11.062069662577	0
1	5868	11.069056717121	0
1	5879	11.079208545059	0
1	5884	11.086195599603	0
1	5895	11.096347427541	0
1	5900	11.103334482085	0
1	5911	11.113486310023	0
1	5916	11.120473364567	0
1	5927	11.130625192505	0
1	5932	11.137612247049	0
1	5943	11.147764074987	0
1	5948	11.154751129531	0
1	5959	11.164902957469	0
1	5964	11.171890012013	0
1	5975	11.182041839951	0
1	5980	11.189028894495	0
1	5991	11.199180722433	0
1	5996	11.206167776977	0
1	6007	11.216319604915	0
1	6012	11.223306659459	0
1	6023	11.233458487397	0
1	6028	11.240445541941	0
1	6039	11.250597369879	0
1	6044	11.257584424423	0
1	6055	11.267736252361	0
1	6060	11.274723306905	0
1	6074	11.284875134843	0
1	6081	11.291862189387	0
1	6093	11.302014017325	0
1	6121	11.434063489472	0
1	6147	12.212853115802	0
1	6162	12.845288690713	0
1	6182	13.014595026918	0
1	6197	13.790814315591	0
1	6205	13.807671008421	0
1	6213	13.824527701251	0
1	6221	13.841384394081	0
1	6229	13.858241086911	0
1	6237	13.875097779741	0
1	6245	13.891954472571	0
1	6253	13.908811165401	0
1	6261	13.925667858231	0
1	6269	13.942524551061	0
1	6277	13.959381243891	0
1	6285	13.976237936721	0
1	6293	13.993094629551	0
1	6306	14.009951322381	0
1	6314	14.026808015211	0
1	6322	14.043664708041	0
1	6330	14.060521400871	0
1	6338	14.077378093701	0
1	6346	14.094234786531	0
1	6354	14.111091479361	0
1	6362	14.127948172191	0
1	6370	14.144804865021	0
1	6378	14.161661557851	0
1	6386	14.178518250681	0
1	6394	14.195374943511	0
1	6402	14.212231636341	0
1	6410	14.229088329171	0
1	6418	14.245945022001	0
1	6426	14.262801714831	0
1	6434	14.279658407661	0
1	6442	14.296515100491	0
1	6450	14.313371793321	0
1	6458	14.330228486151	0
1	6466	14.347085178981	0
1	6474	14.363941871811	0
1	6482	14.380798564641	0
1	6490	14.397655257471	0
1	6498	14.414511950301	0
1	6506	14.431368643131	0
1	6514	14.448225335961	0
1	6522	14.465082028791	0
1	6530	14.481938721621	0
1	6538	14.498795414451	0
1	6546	14.515652107281	0
1	6554	14.532508800111	0
1	6562	14.549365492941	0
1	6570	14.566222185771	0
1	6578	14.583078878601	0
1	6586	14.599935571431	0
1	6594	14.616792264261	0
1	6602	14.633648957091	0
1	6610	14.650505649921	0
1	6618	14.667362342751	0
1	6626	14.684219035581	0
1	6634	14.701075728411	0
1	6642	14.717932421241	0
1	6650	14.734789114071	0
1	6658	14.751645806901	0
1	6666	14.768502499731	0
1	6674	14.785359192561	0
1	6682	14.802215885391	0
1	6690	14.819072578221	0
1	6698	14.835929271051	0
1	6706	14.852785963881	0
1	6714	14.869642656711	0
1	6722	14.886499349541	0
1	6730	14.903356042371	0
1	6738	14.920212735201	0
1	6746	14.937069428031	0
1	6754	14.953926120861	0
1	6762	14.970782813691	0
1	6770	14.987639506521	0
1	6783	15.004496199351	0
1	6791	15.021352892181	0
1	6799	15.038209585011	0
1	6807	15.055066277841	0
1	6819	15.071922970671	0
1	6823	15.078671076637	0
1	6831	15.088779663501	0
1	6842	15.105636356331	0
1	6850	15.122493049161	0
1	6858	15.139349741991	0
1	6866	15.156206434821	0
1	6878	15.168959791826	0
1	6882	15.173063127651	0
1	6894	15.185816484656	0
1	6898	15.189919820481	0
1	6910	15.202673177486	0
1	6914	15.206776513311	0
1	6926	15.219529870316	0
1	6930	15.223633206141	0
1	6942	15.236386563146	0
1	6946	15.240489898971	0
1	6958	15.253243255976	0
1	6962	15.257346591801	0
1	6974	15.270099948806	0
1	6978	15.274203284631	0
1	6990	15.286956641636	0
1	6994	15.291059977461	0
1	7006	15.303813334466	0
1	7010	15.307916670291	0
1	7022	15.320670027296	0
1	7026	15.324773363121	0
1	7038	15.337526720126	0
1	7042	15.341630055951	0
1	7054	15.354383412956	0
1	7058	15.358486748781	0
1	7070	15.371240105786	0
1	7074	15.375343441611	0
1	7086	15.388096798616	0
1	7090	15.392200134441	0
1	7102	15.404953491446	0
1	7106	15.409056827271	0
1	7118	15.421810184276	0
1	7122	15.425913520101	0
1	7134	15.438666877106	0
1	7138	15.442770212931	0
1	7150	15.455523569936	0
1	7154	15.459626905761	0
1	7166	15.472380262766	0
1	7170	15.476483598591	0
1	7182	15.489236955596	0
1	7186	15.493340291421	0
1	7198	15.506093648426	0
1	7202	15.510196984251	0
1	7214	15.522950341256	0
1	7218	15.527053677081	0
1	7230	15.539807034086	0
1	7234	15.543910369911	0
1	7246	15.556663726916	0
1	7250	15.560767062741	0
1	7262	15.573520419746	0
1	7266	15.577623755571	0
1	7278	15.590377112576	0
1	7282	15.594480448401	0
1	7294	15.607233805406	0
1	7298	15.611337141231	0
1	7310	15.624090498236	0
1	7314	15.628193834061	0
1	7326	15.640947191066	0
1	7330	15.645050526891	0
1	7342	15.657803883896	0
1	7346	15.661907219721	0
1	7358	15.674660576726	0
1	7362	15.678763912551	0
1	7374	15.691517269556	0
1	7378	15.695620605381	0
1	7390	15.708373962386	0
1	7394	15.712477298211	0
1	7406	15.725230655216	0
1	7410	15.729333991041	0
1	7422	15.742087348046	0
1	7426	15.746190683871	0
1	7438	15.758944040876	0
1	7442	15.763047376701	0
1	7454	15.775800733706	0
1	7458	15.779904069531	0
1	7470	15.792657426536	0
1	7474	15.796760762361	0
1	7486	15.809514119366	0
1	7490	15.813617455191	0
1	7502	15.826370812196	0
1	7506	15.830474148021	0
1	7518	15.843227505026	0
1	7522	15.847330840851	0
1	7534	15.860084197856	0
1	7538	15.864187533681	0
1	7550	15.876940890686	0
1	7554	15.881044226511	0
1	7566	15.893797583516	0
1	7570	15.897900919341	0
1	7582	15.910654276346	0
1	7586	15.914757612171	0
1	7598	15.927510969176	0
1	7602	15.931614305001	0
1	7614	15.944367662006	0
1	7618	15.948470997831	0
1	7630	15.961224354836	0
1	7634	15.965327690661	0
1	7646	15.978081047666	0
1	7650	15.982184383491	0
1	7662	15.994937740496	0
1	7666	15.999041076321	0
1	7684	16.011794433326	0
1	7688	16.015897769151	0
1	7700	16.028651126156	0
1	7704	16.032754461981	0
1	7716	16.045507818986	0
1	7720	16.049611154811	0
1	7732	16.062364511816	0
1	7736	16.066467847641	0
1	7748	16.079221204646	0
1	7752	16.083324540471	0
1	7764	16.096077897476	0
1	7768	16.100181233301	0
1	7780	16.112934590306	0
1	7784	16.117037926131	0
1	7799	16.12868063902	0
1	7803	16.129791283136	0
1	7807	16.133894618961	0
1	7820	16.14553733185	0
1	7828	16.149211339572	0
1	7832	16.152885347294	0
1	7844	16.16239402468	0
1	7852	16.166068032402	0
1	7856	16.169742040124	0
1	7868	16.17925071751	0
1	7876	16.182924725232	0
1	7880	16.186598732954	0
1	7892	16.19610741034	0
1	7900	16.199781418062	0
1	7904	16.203455425784	0
1	7916	16.21296410317	0
1	7924	16.216638110892	0
1	7928	16.220312118614	0
1	7940	16.229820796	0
1	7948	16.233494803722	0
1	7952	16.237168811444	0
1	7964	16.24667748883	0
1	7972	16.250351496552	0
1	7976	16.254025504274	0
1	7988	16.26353418166	0
1	7996	16.267208189382	0
1	8000	16.270882197104	0
1	8012	16.28039087449	0
1	8020	16.284064882212	0
1	8024	16.287738889934	0
1	8036	16.29724756732	0
1	8044	16.300921575042	0
1	8048	16.304595582764	0
1	8060	16.31410426015	0
1	8068	16.317778267872	0
1	8072	16.321452275594	0
1	8084	16.33096095298	0
1	8092	16.334634960702	0
1	8096	16.338308968424	0
1	8112	16.34781764581	0
1	8120	16.351491653532	0
1	8123	16.35160544242	0
1	8127	16.355165661254	0
1	8140	16.36467433864	0
1	8148	16.368348346362	0
1	8156	16.372022354084	0
1	8163	16.375696361806	0
1	8172	16.38153103147	0
1	8180	16.385205039192	0
1	8188	16.388879046914	0
1	8195	16.392553054636	0
1	8204	16.3983877243	0
1	8212	16.402061732022	0
1	8220	16.405735739744	0
1	8227	16.409409747466	0
1	8236	16.41524441713	0
1	8244	16.418918424852	0
1	8252	16.422592432574	0
1	8259	16.426266440296	0
1	8268	16.43210110996	0
1	8276	16.435775117682	0
1	8284	16.439449125404	0
1	8291	16.443123133126	0
1	8300	16.44895780279	0
1	8308	16.452631810512	0
1	8316	16.456305818234	0
1	8323	16.459979825956	0
1	8332	16.46581449562	0
1	8340	16.469488503342	0
1	8348	16.473162511064	0
1	8355	16.476836518786	0
1	8364	16.48267118845	0
1	8372	16.486345196172	0
1	8380	16.490019203894	0
1	8387	16.493693211616	0
1	8396	16.49952788128	0
1	8404	16.503201889002	0
1	8412	16.506875896724	0
1	8419	16.510549904446	0
1	8428	16.51638457411	0
1	8436	16.520058581832	0
1	8444	16.523732589554	0
1	8451	16.527406597276	0
1	8460	16.53324126694	0
1	8468	16.536915274662	0
1	8476	16.540589282384	0
1	8483	16.544263290106	0
1	8492	16.55009795977	0
1	8500	16.553771967492	0
1	8508	16.557445975214	0
1	8515	16.561119982936	0
1	8524	16.5669546526	0
1	8532	16.570628660322	0
1	8540	16.574302668044	0
1	8547	16.577976675766	0
1	8556	16.58381134543	0
1	8564	16.587485353152	0
1	8572	16.591159360874	0
1	8579	16.594833368596	0
1	8588	16.60066803826	0
1	8596	16.604342045982	0
1	8604	16.608016053704	0
1	8611	16.611690061426	0
1	8620	16.61752473109	0
1	8628	16.621198738812	0
1	8636	16.624872746534	0
1	8643	16.628546754256	0
1	8652	16.63438142392	0
1	8660	16.638055431642	0
1	8668	16.641729439364	0
1	8675	16.645403447086	0
1	8684	16.65123811675	0
1	8692	16.654912124472	0
1	8700	16.658586132194	0
1	8707	16.662260139916	0
1	8716	16.66809480958	0
1	8724	16.671768817302	0
1	8732	16.675442825024	0
1	8739	16.679116832746	0
1	8748	16.68495150241	0
1	8756	16.688625510132	0
1	8764	16.692299517854	0
1	8771	16.695973525576	0
1	8780	16.70180819524	0
1	8788	16.705482202962	0
1	8796	16.709156210684	0
1	8803	16.712830218406	0
1	8812	16.71866488807	0
1	8820	16.722338895792	0
1	8828	16.726012903514	0
1	8835	16.729686911236	0
1	8844	16.7355215809	0
1	8852	16.739195588622	0
1	8860	16.742869596344	0
1	8867	16.746543604066	0
1	8876	16.75237827373	0
1	8884	16.756052281452	0
1	8892	16.759726289174	0
1	8899	16.763400296896	0
1	8908	16.76923496656	0
1	8916	16.772908974282	0
1	8924	16.776582982004	0
1	8931	16.780256989726	0
1	8940	16.78609165939	0
1	8948	16.789765667112	0
1	8956	16.793439674834	0
1	8963	16.797113682556	0
1	8972	16.80294835222	0
1	8980	16.806622359942	0
1	8988	16.810296367664	0
1	8995	16.813970375386	0
1	9004	16.81980504505	0
1	9012	16.823479052772	0
1	9020	16.827153060494	0
1	9027	16.830827068216	0
1	9036	16.83666173788	0
1	9044	16.840335745602	0
1	9052	16.844009753324	0
1	9059	16.847683761046	0
1	9068	16.85351843071	0
1	9076	16.857192438432	0
1	9084	16.860866446154	0
1	9091	16.864540453876	0
1	9100	16.87037512354	0
1	9108	16.874049131262	0
1	9116	16.877723138984	0
1	9123	16.881397146706	0
1	9132	16.88723181637	0
1	9140	16.890905824092	0
1	9148	16.894579831814	0
1	9155	16.898253839536	0
1	9167	16.9040885092	0
1	9175	16.907762516922	0
1	9182	16.9102404084	0
1	9187	16.912718299878	0
1	9194	16.915196191356	0
1	9203	16.92094520203	0
1	9210	16.924619209752	0
1	9227	16.931967225196	0
1	9235	16.935641232918	0
1	9243	16.93931524064	0
1	9250	16.942989248362	0
1	9259	16.948823918026	0
1	9267	16.952497925748	0
1	9275	16.95617193347	0
1	9282	16.959845941192	0
1	9291	16.965680610856	0
1	9299	16.969354618578	0
1	9307	16.9730286263	0
1	9314	16.976702634022	0
1	9323	16.982537303686	0
1	9331	16.986211311408	0
1	9339	16.98988531913	0
1	9346	16.993559326852	0
1	9355	16.999393996516	0
1	9368	17.003068004238	0
1	9376	17.00674201196	0
1	9383	17.010416019682	0
1	9392	17.016250689346	0
1	9400	17.019924697068	0
1	9408	17.02359870479	0
1	9415	17.027272712512	0
1	9424	17.033107382176	0
1	9432	17.036781389898	0
1	9440	17.04045539762	0
1	9447	17.044129405342	0
1	9456	17.049964075006	0
1	9464	17.053638082728	0
1	9472	17.05731209045	0
1	9479	17.060986098172	0
1	9488	17.066820767836	0
1	9496	17.070494775558	0
1	9504	17.07416878328	0
1	9511	17.077842791002	0
1	9520	17.083677460666	0
1	9528	17.087351468388	0
1	9536	17.09102547611	0
1	9543	17.094699483832	0
1	9552	17.100534153496	0
1	9560	17.104208161218	0
1	9568	17.10788216894	0
1	9575	17.111556176662	0
1	9584	17.117390846326	0
1	9592	17.121064854048	0
1	9600	17.12473886177	0