version 3
run NetSDN_ML_Inference-0-20251116-21:16:04-5760
attr configname NetSDN_ML_Inference
attr datetime 20251116-21:16:04
attr datetimef 20251116-211604
attr experiment NetSDN_ML_Inference
attr inifile omnetpp_ml.ini
attr iterationvars ""
attr iterationvarsd ""
attr iterationvarsf ""
attr measurement ""
attr network modelingproject4sdn.simulations.NetSDN_ML
attr processid 5760
attr repetition 0
attr replication #0
attr resultdir results
attr runnumber 0
attr seedset 0
config extends NetSDN_ML
config description "Inference phase - use trained ML model"
config sim-time-limit 200s
config **.sdn.controller.enableMLRouting true
config **.sdn.controller.trainingThreshold 10
config **.device*.app.sendIaTime "uniform(2s, 5s)"
config network modelingproject4sdn.simulations.NetSDN_ML
config description "ML-Enhanced SDN Routing"
config **.sdn.controller.discoveryInterval 5s
config **.sdn.controller.datasetFile "\"sdn_dataset.csv\""
config **.sdn.controller.enableMLRouting false
config **.sdn.controller.trainingThreshold 50
config **.device*.appType "\"App\""
config **.device*.app.destAddresses "\"1 3 4\""
config **.device*.app.sendIaTime "uniform(2s, 5s)"
config **.device*.app.packetLength "2048 bytes"
config **.frameCapacity 100
config **.useCutThroughSwitching false
config **.result-recording-modes all
config network modelingproject4sdn.simulations.NetSDN_ML
config description "SDN Network with ML-based Smart Routing"
config sim-time-limit 300s
config **.vector-recording true
config **.scalar-recording true

vector 0 NetSDN_ML.device1.port$o[0].channel busy:vector ETV
attr interpolationmode sample-hold
attr recordingmode vector
attr source channelBusy
vector 1 NetSDN_ML.sdn.port$o[0].channel busy:vector ETV
attr interpolationmode sample-hold
attr recordingmode vector
attr source channelBusy
vector 2 NetSDN_ML.device2.port$o[0].channel busy:vector ETV
attr interpolationmode sample-hold
attr recordingmode vector
attr source channelBusy
vector 3 NetSDN_ML.sdn.port$o[1].channel busy:vector ETV
attr interpolationmode sample-hold
attr recordingmode vector
attr source channelBusy
vector 4 NetSDN_ML.device3.port$o[0].channel busy:vector ETV
attr interpolationmode sample-hold
attr recordingmode vector
attr source channelBusy
vector 5 NetSDN_ML.sdn.port$o[2].channel busy:vector ETV
attr interpolationmode sample-hold
attr recordingmode vector
attr source channelBusy
vector 6 NetSDN_ML.device4.port$o[0].channel busy:vector ETV
attr interpolationmode sample-hold
attr recordingmode vector
attr source channelBusy
vector 7 NetSDN_ML.sdn.port$o[3].channel busy:vector ETV
attr interpolationmode sample-hold
attr recordingmode vector
attr source channelBusy
vector 8 NetSDN_ML.device5.port$o[0].channel busy:vector ETV
attr interpolationmode sample-hold
attr recordingmode vector
attr source channelBusy
vector 9 NetSDN_ML.sdn.port$o[4].channel busy:vector ETV
attr interpolationmode sample-hold
attr recordingmode vector
attr source channelBusy
vector 10 NetSDN_ML.device1.port$o[1].channel busy:vector ETV
attr interpolationmode sample-hold
attr recordingmode vector
attr source channelBusy
vector 11 NetSDN_ML.device2.port$o[1].channel busy:vector ETV
attr interpolationmode sample-hold
attr recordingmode vector
attr source channelBusy
vector 12 NetSDN_ML.device1.port$o[2].channel busy:vector ETV
attr interpolationmode sample-hold
attr recordingmode vector
attr source channelBusy
vector 13 NetSDN_ML.device4.port$o[1].channel busy:vector ETV
attr interpolationmode sample-hold
attr recordingmode vector
attr source channelBusy
vector 14 NetSDN_ML.device2.port$o[2].channel busy:vector ETV
attr interpolationmode sample-hold
attr recordingmode vector
attr source channelBusy
vector 15 NetSDN_ML.device5.port$o[1].channel busy:vector ETV
attr interpolationmode sample-hold
attr recordingmode vector
attr source channelBusy
vector 16 NetSDN_ML.device3.port$o[1].channel busy:vector ETV
attr interpolationmode sample-hold
attr recordingmode vector
attr source channelBusy
vector 17 NetSDN_ML.device4.port$o[2].channel busy:vector ETV
attr interpolationmode sample-hold
attr recordingmode vector
attr source channelBusy
vector 18 NetSDN_ML.device3.port$o[2].channel busy:vector ETV
attr interpolationmode sample-hold
attr recordingmode vector
attr source channelBusy
vector 19 NetSDN_ML.device5.port$o[2].channel busy:vector ETV
attr interpolationmode sample-hold
attr recordingmode vector
attr source channelBusy
vector 20 NetSDN_ML.device4.port$o[3].channel busy:vector ETV
attr interpolationmode sample-hold
attr recordingmode vector
attr source channelBusy
vector 21 NetSDN_ML.device5.port$o[3].channel busy:vector ETV
attr interpolationmode sample-hold
attr recordingmode vector
attr source channelBusy
vector 22 NetSDN_ML.sdn.queue[0] qlen:vector ETV
attr interpolationmode sample-hold
attr recordingmode vector
attr title "queue length"
vector 23 NetSDN_ML.sdn.queue[0] busy:vector ETV
attr interpolationmode sample-hold
attr recordingmode vector
attr title "server busy state"
vector 24 NetSDN_ML.sdn.queue[1] qlen:vector ETV
attr interpolationmode sample-hold
attr recordingmode vector
attr title "queue length"
vector 25 NetSDN_ML.sdn.queue[1] busy:vector ETV
attr interpolationmode sample-hold
attr recordingmode vector
attr title "server busy state"
vector 26 NetSDN_ML.sdn.queue[2] qlen:vector ETV
attr interpolationmode sample-hold
attr recordingmode vector
attr title "queue length"
vector 27 NetSDN_ML.sdn.queue[2] busy:vector ETV
attr interpolationmode sample-hold
attr recordingmode vector
attr title "server busy state"
vector 28 NetSDN_ML.sdn.queue[3] qlen:vector ETV
attr interpolationmode sample-hold
attr recordingmode vector
attr title "queue length"
vector 29 NetSDN_ML.sdn.queue[3] busy:vector ETV
attr interpolationmode sample-hold
attr recordingmode vector
attr title "server busy state"
vector 30 NetSDN_ML.sdn.queue[4] qlen:vector ETV
attr interpolationmode sample-hold
attr recordingmode vector
attr title "queue length"
vector 31 NetSDN_ML.sdn.queue[4] busy:vector ETV
attr interpolationmode sample-hold
attr recordingmode vector
attr title "server busy state"
vector 32 NetSDN_ML.device1.queue[0] qlen:vector ETV
attr interpolationmode sample-hold
attr recordingmode vector
attr title "queue length"
vector 33 NetSDN_ML.device1.queue[0] busy:vector ETV
attr interpolationmode sample-hold
attr recordingmode vector
attr title "server busy state"
vector 34 NetSDN_ML.device1.queue[1] qlen:vector ETV
attr interpolationmode sample-hold
attr recordingmode vector
attr title "queue length"
vector 35 NetSDN_ML.device1.queue[1] busy:vector ETV
attr interpolationmode sample-hold
attr recordingmode vector
attr title "server busy state"
vector 36 NetSDN_ML.device1.queue[2] qlen:vector ETV
attr interpolationmode sample-hold
attr recordingmode vector
attr title "queue length"
vector 37 NetSDN_ML.device1.queue[2] busy:vector ETV
attr interpolationmode sample-hold
attr recordingmode vector
attr title "server busy state"
vector 38 NetSDN_ML.device2.queue[0] qlen:vector ETV
attr interpolationmode sample-hold
attr recordingmode vector
attr title "queue length"
vector 39 NetSDN_ML.device2.queue[0] busy:vector ETV
attr interpolationmode sample-hold
attr recordingmode vector
attr title "server busy state"
vector 40 NetSDN_ML.device2.queue[1] qlen:vector ETV
attr interpolationmode sample-hold
attr recordingmode vector
attr title "queue length"
vector 41 NetSDN_ML.device2.queue[1] busy:vector ETV
attr interpolationmode sample-hold
attr recordingmode vector
attr title "server busy state"
vector 42 NetSDN_ML.device2.queue[2] qlen:vector ETV
attr interpolationmode sample-hold
attr recordingmode vector
attr title "queue length"
vector 43 NetSDN_ML.device2.queue[2] busy:vector ETV
attr interpolationmode sample-hold
attr recordingmode vector
attr title "server busy state"
vector 44 NetSDN_ML.device3.queue[0] qlen:vector ETV
attr interpolationmode sample-hold
attr recordingmode vector
attr title "queue length"
vector 45 NetSDN_ML.device3.queue[0] busy:vector ETV
attr interpolationmode sample-hold
attr recordingmode vector
attr title "server busy state"
vector 46 NetSDN_ML.device3.queue[1] qlen:vector ETV
attr interpolationmode sample-hold
attr recordingmode vector
attr title "queue length"
vector 47 NetSDN_ML.device3.queue[1] busy:vector ETV
attr interpolationmode sample-hold
attr recordingmode vector
attr title "server busy state"
vector 48 NetSDN_ML.device3.queue[2] qlen:vector ETV
attr interpolationmode sample-hold
attr recordingmode vector
attr title "queue length"
vector 49 NetSDN_ML.device3.queue[2] busy:vector ETV
attr interpolationmode sample-hold
attr recordingmode vector
attr title "server busy state"
vector 50 NetSDN_ML.device4.queue[0] qlen:vector ETV
attr interpolationmode sample-hold
attr recordingmode vector
attr title "queue length"
vector 51 NetSDN_ML.device4.queue[0] busy:vector ETV
attr interpolationmode sample-hold
attr recordingmode vector
attr title "server busy state"
vector 52 NetSDN_ML.device4.queue[1] qlen:vector ETV
attr interpolationmode sample-hold
attr recordingmode vector
attr title "queue length"
vector 53 NetSDN_ML.device4.queue[1] busy:vector ETV
attr interpolationmode sample-hold
attr recordingmode vector
attr title "server busy state"
vector 54 NetSDN_ML.device4.queue[2] qlen:vector ETV
attr interpolationmode sample-hold
attr recordingmode vector
attr title "queue length"
vector 55 NetSDN_ML.device4.queue[2] busy:vector ETV
attr interpolationmode sample-hold
attr recordingmode vector
attr title "server busy state"
vector 56 NetSDN_ML.device4.queue[3] qlen:vector ETV
attr interpolationmode sample-hold
attr recordingmode vector
attr title "queue length"
vector 57 NetSDN_ML.device4.queue[3] busy:vector ETV
attr interpolationmode sample-hold
attr recordingmode vector
attr title "server busy state"
vector 58 NetSDN_ML.device5.queue[0] qlen:vector ETV
attr interpolationmode sample-hold
attr recordingmode vector
attr title "queue length"
vector 59 NetSDN_ML.device5.queue[0] busy:vector ETV
attr interpolationmode sample-hold
attr recordingmode vector
attr title "server busy state"
vector 60 NetSDN_ML.device5.queue[1] qlen:vector ETV
attr interpolationmode sample-hold
attr recordingmode vector
attr title "queue length"
vector 61 NetSDN_ML.device5.queue[1] busy:vector ETV
attr interpolationmode sample-hold
attr recordingmode vector
attr title "server busy state"
vector 62 NetSDN_ML.device5.queue[2] qlen:vector ETV
attr interpolationmode sample-hold
attr recordingmode vector
attr title "queue length"
vector 63 NetSDN_ML.device5.queue[2] busy:vector ETV
attr interpolationmode sample-hold
attr recordingmode vector
attr title "server busy state"
vector 64 NetSDN_ML.device5.queue[3] qlen:vector ETV
attr interpolationmode sample-hold
attr recordingmode vector
attr title "queue length"
vector 65 NetSDN_ML.device5.queue[3] busy:vector ETV
attr interpolationmode sample-hold
attr recordingmode vector
attr title "server busy state"
vector 66 NetSDN_ML.device3.queue[1] txBytes:vector ETV
attr interpolationmode none
attr recordingmode vector
attr title "transmitting packet byte length"
attr unit bytes
vector 67 NetSDN_ML.device4.queue[2] rxBytes:vector ETV
attr interpolationmode none
attr recordingmode vector
attr title "received packet byte length"
attr unit bytes
vector 68 NetSDN_ML.device4.queue[1] txBytes:vector ETV
attr interpolationmode none
attr recordingmode vector
attr title "transmitting packet byte length"
attr unit bytes
vector 69 NetSDN_ML.device1.queue[2] rxBytes:vector ETV
attr interpolationmode none
attr recordingmode vector
attr title "received packet byte length"
attr unit bytes
vector 70 NetSDN_ML.device1.app endToEndDelay:vector ETV
attr interpolationmode none
attr recordingmode vector
attr title "end-to-end delay of arrived packets"
attr unit s
vector 71 NetSDN_ML.device1.app hopCount:vector ETV
attr interpolationmode none
attr recordingmode vector
attr title "hop count of arrived packets"
vector 72 NetSDN_ML.device1.app sourceAddress:vector ETV
attr interpolationmode none
attr recordingmode vector
attr title "source address of arrived packets"
vector 73 NetSDN_ML.device5.queue[1] txBytes:vector ETV
attr interpolationmode none
attr recordingmode vector
attr title "transmitting packet byte length"
attr unit bytes
vector 74 NetSDN_ML.device2.queue[2] rxBytes:vector ETV
attr interpolationmode none
attr recordingmode vector
attr title "received packet byte length"
attr unit bytes
vector 75 NetSDN_ML.device2.queue[1] txBytes:vector ETV
attr interpolationmode none
attr recordingmode vector
attr title "transmitting packet byte length"
attr unit bytes
vector 76 NetSDN_ML.device1.queue[1] rxBytes:vector ETV
attr interpolationmode none
attr recordingmode vector
attr title "received packet byte length"
attr unit bytes
vector 77 NetSDN_ML.device1.queue[2] txBytes:vector ETV
attr interpolationmode none
attr recordingmode vector
attr title "transmitting packet byte length"
attr unit bytes
vector 78 NetSDN_ML.device4.queue[1] rxBytes:vector ETV
attr interpolationmode none
attr recordingmode vector
attr title "received packet byte length"
attr unit bytes
vector 79 NetSDN_ML.device4.queue[2] txBytes:vector ETV
attr interpolationmode none
attr recordingmode vector
attr title "transmitting packet byte length"
attr unit bytes
vector 80 NetSDN_ML.device3.queue[1] rxBytes:vector ETV
attr interpolationmode none
attr recordingmode vector
attr title "received packet byte length"
attr unit bytes
vector 81 NetSDN_ML.device3.app endToEndDelay:vector ETV
attr interpolationmode none
attr recordingmode vector
attr title "end-to-end delay of arrived packets"
attr unit s
vector 82 NetSDN_ML.device3.app hopCount:vector ETV
attr interpolationmode none
attr recordingmode vector
attr title "hop count of arrived packets"
vector 83 NetSDN_ML.device3.app sourceAddress:vector ETV
attr interpolationmode none
attr recordingmode vector
attr title "source address of arrived packets"
vector 84 NetSDN_ML.device4.app endToEndDelay:vector ETV
attr interpolationmode none
attr recordingmode vector
attr title "end-to-end delay of arrived packets"
attr unit s
vector 85 NetSDN_ML.device4.app hopCount:vector ETV
attr interpolationmode none
attr recordingmode vector
attr title "hop count of arrived packets"
vector 86 NetSDN_ML.device4.app sourceAddress:vector ETV
attr interpolationmode none
attr recordingmode vector
attr title "source address of arrived packets"
vector 87 NetSDN_ML.sdn.controller topologyUpdated:vector ETV
attr recordingmode vector
attr title "topology update events"
vector 88 NetSDN_ML.device5.queue[2] txBytes:vector ETV
attr interpolationmode none
attr recordingmode vector
attr title "transmitting packet byte length"
attr unit bytes
vector 89 NetSDN_ML.device3.queue[2] rxBytes:vector ETV
attr interpolationmode none
attr recordingmode vector
attr title "received packet byte length"
attr unit bytes
vector 90 NetSDN_ML.device5.queue[3] txBytes:vector ETV
attr interpolationmode none
attr recordingmode vector
attr title "transmitting packet byte length"
attr unit bytes
vector 91 NetSDN_ML.device4.queue[3] rxBytes:vector ETV
attr interpolationmode none
attr recordingmode vector
attr title "received packet byte length"
attr unit bytes
vector 92 NetSDN_ML.device2.queue[2] txBytes:vector ETV
attr interpolationmode none
attr recordingmode vector
attr title "transmitting packet byte length"
attr unit bytes
vector 93 NetSDN_ML.device5.queue[1] rxBytes:vector ETV
attr interpolationmode none
attr recordingmode vector
attr title "received packet byte length"
attr unit bytes
0	0	0	0
0	2169	0	0
1	0	0	0
1	2169	0	0
2	0	0	0
2	2169	0	0
3	0	0	0
3	2169	0	0
4	0	0	0
4	2169	0	0
5	0	0	0
5	2169	0	0
6	0	0	0
6	2169	0	0
7	0	0	0
7	2169	0	0
8	0	0	0
8	2169	0	0
9	0	0	0
9	2169	0	0
10	0	0	0
10	2169	0	0
11	0	0	0
11	23	0	0
11	23	2.433337861786	1
11	48	2.436417679976	0
11	48	4.341587526957	1
11	81	4.344667345147	0
11	81	7.69143749564	1
11	110	7.69451731383	0
11	110	10.204166254029	1
11	125	10.207246072219	0
11	125	10.28654449817	1
11	195	10.28962431636	0
11	195	18.075977189467	1
11	253	18.079057007657	0
11	253	23.006260461873	1
11	274	23.009340280063	0
11	274	26.706064807252	1
11	295	26.709144625442	0
11	295	28.734134912492	1
11	338	28.737214730682	0
11	338	31.927597167437	1
11	364	31.930676985627	0
11	364	35.634824656994	1
11	371	35.637904475184	0
11	371	36.195917241742	1
11	421	36.198997059932	0
11	421	41.131630013465	1
11	464	41.134709831655	0
11	464	45.999880932738	1
11	543	46.002960750928	0
11	543	52.010166545744	1
11	600	52.013246363934	0
11	600	58.65210423397	1
11	648	58.65518405216	0
11	648	62.073717042339	1
11	662	62.076796860529	0
11	662	63.57866877026	1
11	684	63.58174858845	0
11	684	65.090672391701	1
11	698	65.093752209891	0
11	698	66.969021698805	1
11	705	66.972101516995	0
11	705	67.186189163478	1
11	744	67.189268981668	0
11	744	72.163378350438	1
11	791	72.166458168628	0
11	791	74.819626454032	1
11	900	74.822706272222	0
11	900	86.333587463591	1
11	932	86.336667281781	0
11	932	87.157804358752	1
11	960	87.160884176942	0
11	960	89.701976780658	1
11	983	89.705056598848	0
11	983	92.030156926719	1
11	1015	92.033236744909	0
11	1015	94.554883543403	1
11	1051	94.557963361593	0
11	1051	97.049760157709	1
11	1095	97.052839975899	0
11	1095	100.630279317842	1
11	1113	100.633359136032	0
11	1113	101.244841432898	1
11	1141	101.247921251088	0
11	1141	104.782021829393	1
11	1174	104.785101647583	0
11	1174	109.418631046079	1
11	1213	109.421710864269	0
11	1213	113.952281279489	1
11	1228	113.955361097679	0
11	1228	114.396800505574	1
11	1243	114.399880323764	0
11	1243	117.183757703984	1
11	1293	117.186837522174	0
11	1293	122.125856724568	1
11	1307	122.128936542758	0
11	1307	123.582820204431	1
11	1322	123.585900022621	0
11	1322	125.82138646475	1
11	1336	125.82446628294	0
11	1336	126.302639828762	1
11	1365	126.305719646952	0
11	1365	129.117830607919	1
11	1390	129.120910426109	0
11	1390	130.483772620326	1
11	1468	130.486852438516	0
11	1468	139.640532708727	1
11	1535	139.643612526917	0
11	1535	145.015946794646	1
11	1577	145.019026612836	0
11	1577	149.388049921487	1
11	1613	149.391129739677	0
11	1613	153.128641244723	1
11	1653	153.131721062913	0
11	1653	156.638923524414	1
11	1686	156.642003342604	0
11	1686	158.893926733174	1
11	1722	158.897006551364	0
11	1722	162.166023488623	1
11	1743	162.169103306813	0
11	1743	163.567608676264	1
11	1750	163.570688494454	0
11	1750	164.7217204622	1
11	1772	164.72480028039	0
11	1772	165.843691426441	1
11	1790	165.846771244631	0
11	1790	167.419952858706	1
11	1854	167.423032676896	0
11	1854	172.66838970245	1
11	1872	172.67146952064	0
11	1872	174.868426153082	1
11	1883	174.871505971272	0
11	1883	175.533585211729	1
11	1911	175.536665029919	0
11	1911	178.805852172897	1
11	1949	178.808931991087	0
11	1949	181.726339825541	1
11	2019	181.729419643731	0
11	2019	186.538192917239	1
11	2059	186.541272735429	0
11	2059	190.60749771364	1
11	2066	190.61057753183	0
11	2066	190.691028031521	1
11	2135	190.694107849711	0
11	2135	197.684460263467	1
11	2163	197.687540081657	0
11	2163	199.814731035028	1
11	2169	199.817810853218	0
12	0	0	0
12	30	0	0
12	30	3.384438088397	1
12	63	3.388050827514	0
12	63	6.05140224495	1
12	85	6.055014984067	0
12	85	7.699810974096	1
12	114	7.703423713213	0
12	114	10.212539732485	1
12	199	10.216152471602	0
12	199	18.084350667923	1
12	217	18.08796340704	0
12	217	19.267646548803	1
12	232	19.27125928792	0
12	232	21.385209915693	1
12	257	21.38882265481	0
12	257	23.014633940329	1
12	278	23.018246679446	0
12	278	26.714438285708	1
12	299	26.718051024825	0
12	299	28.742508390948	1
12	321	28.746121130065	0
12	321	30.668755669378	1
12	399	30.672368408495	0
12	399	39.376868579768	1
12	425	39.380481318885	0
12	425	41.140003491921	1
12	468	41.143616231038	0
12	468	46.008254411194	1
12	489	46.011867150311	0
12	489	46.879065918967	1
12	579	46.882678658084	0
12	579	56.544399055883	1
12	618	56.548011795	0
12	618	59.765948948914	1
12	676	59.769561688031	0
12	676	64.90144850849	1
12	748	64.905061247607	0
12	748	72.171751828894	1
12	766	72.175364568011	0
12	766	73.319051438708	1
12	795	73.322664177825	0
12	795	74.827999932488	1
12	820	74.831612671605	0
12	820	78.229761493391	1
12	925	78.233374232508	0
12	925	86.938093936069	1
12	956	86.941706675186	0
12	956	89.699918872209	1
12	990	89.703531611326	0
12	990	92.038530405175	1
12	997	92.042143144292	0
12	997	92.344561081843	1
12	1019	92.34817382096	0
12	1019	94.563257021859	1
12	1079	94.566869760976	0
12	1079	99.828715950481	1
12	1127	99.832328689598	0
12	1127	104.617303904842	1
12	1163	104.620916643959	0
12	1163	108.436730291459	1
12	1178	108.440343030576	0
12	1178	109.427004524535	1
12	1203	109.430617263652	0
12	1203	113.059594201154	1
12	1217	113.063206940271	0
12	1217	113.960654757945	1
12	1247	113.964267497062	0
12	1247	117.19213118244	1
12	1340	117.195743921557	0
12	1340	126.311013307218	1
12	1372	126.314626046335	0
12	1372	129.453935104186	1
12	1404	129.457547843303	0
12	1404	132.822356796354	1
12	1472	132.825969535471	0
12	1472	139.648906187183	1
12	1501	139.6525189263	0
12	1501	141.688838811588	1
12	1549	141.692451550705	0
12	1549	145.637227906609	1
12	1581	145.640840645726	0
12	1581	149.396423399943	1
12	1589	149.40003613906	0
12	1589	150.368862063155	1
12	1617	150.372474802272	0
12	1617	153.137014723179	1
12	1627	153.140627462296	0
12	1627	154.639198001937	1
12	1657	154.642810741054	0
12	1657	156.64729700287	1
12	1664	156.650909741987	0
12	1664	156.931604061506	1
12	1690	156.935216800623	0
12	1690	158.90230021163	1
12	1726	158.905912950747	0
12	1726	162.174396967079	1
12	1779	162.178009706196	0
12	1779	166.786437037165	1
12	1800	166.790049776282	0
12	1800	168.883832925462	1
12	1836	168.887445664579	0
12	1836	171.230285804017	1
12	1858	171.233898543134	0
12	1858	172.676763180906	1
12	1887	172.680375920023	0
12	1887	175.541958690185	1
12	1894	175.545571429302	0
12	1894	176.198515128341	1
12	1915	176.202127867458	0
12	1915	178.814225651353	1
12	1922	178.81783839047	0
12	1922	179.482018277279	1
12	1963	179.485631016396	0
12	1963	182.674618771995	1
12	2026	182.678231511112	0
12	2026	186.766043602951	1
12	2070	186.769656342068	0
12	2070	190.699401509977	1
12	2124	190.703014249094	0
12	2124	195.731395659033	1
12	2169	195.73500839815	0
13	0	0	0
13	12	0	0
13	12	2.358832967461	1
13	41	2.360754909917	0
13	41	3.919763050973	1
13	136	3.921684993429	0
13	136	10.462362240295	1
13	210	10.464284182751	0
13	210	18.554436434286	1
13	313	18.556358376742	0
13	313	29.649752189398	1
13	349	29.651674131854	0
13	349	32.759176476618	1
13	395	32.761098419074	0
13	395	39.368243036086	1
13	413	39.370164978542	0
13	413	39.791250752518	1
13	457	39.793172694974	0
13	457	45.579463164315	1
13	553	45.581385106771	0
13	553	54.782046567648	1
13	641	54.783968510104	0
13	641	61.940796980627	1
13	759	61.942718923083	0
13	759	73.194351749953	1
13	803	73.196273692409	0
13	803	76.47212585667	1
13	846	76.474047799126	0
13	846	80.325099614215	1
13	867	80.327021556671	0
13	867	82.895531888578	1
13	911	82.897453831034	0
13	911	86.660483240841	1
13	918	86.662405183297	0
13	918	86.871242054505	1
13	943	86.873163996961	0
13	943	89.30700627411	1
13	979	89.308928216566	0
13	979	92.020650452002	1
13	1058	92.022572394458	0
13	1058	97.85057626129	1
13	1106	97.852498203746	0
13	1106	100.948314854169	1
13	1120	100.950236796625	0
13	1120	102.736385411814	1
13	1156	102.73830735427	0
13	1156	107.668870817635	1
13	1236	107.670792760091	0
13	1236	116.072837653568	1
13	1261	116.074759596024	0
13	1261	117.364303462432	1
13	1283	117.366225404888	0
13	1283	120.395119960877	1
13	1354	120.397041903333	0
13	1354	127.649078937471	1
13	1415	127.651000879927	0
13	1415	133.141247846176	1
13	1437	133.143169788632	0
13	1437	135.50338628236	1
13	1461	135.505308224816	0
13	1461	138.09454911528	1
13	1542	138.096471057736	0
13	1542	145.168311798711	1
13	1679	145.170233741167	0
13	1679	158.600673096477	1
13	1704	158.602595038933	0
13	1704	159.730036917607	1
13	1938	159.731958860063	0
13	1938	180.12461404804	1
13	1997	180.126535990496	0
13	1997	185.71216381736	1
13	2033	185.714085759816	0
13	2033	186.795206024543	1
13	2081	186.797127966999	0
13	2081	191.152616041237	1
13	2145	191.154537983693	0
13	2145	198.686632283031	1
13	2169	198.688554225487	0
14	0	0	0
14	156	0	0
14	156	14.106988413493	1
14	496	14.111047309647	0
14	496	48.406303138473	1
14	525	48.410362034627	0
14	525	51.700558441925	1
14	561	51.704617338079	0
14	561	55.04433696298	1
14	607	55.048395859134	0
14	607	59.381490017521	1
14	831	59.385548913675	0
14	831	78.908656911227	1
14	874	78.912715807381	0
14	874	83.598670782057	1
14	1425	83.602729678211	0
14	1425	134.964383723214	1
14	1519	134.968442619368	0
14	1519	144.518832740607	1
14	1822	144.522891636761	0
14	1822	170.17952643172	1
14	1981	170.183585327874	0
14	1981	183.291822920321	1
14	2004	183.295881816475	0
14	2004	186.016459984007	1
14	2098	186.020518880161	0
14	2098	194.038902975852	1
14	2169	194.042961872006	0
15	0	0	0
15	19	0	0
15	19	2.430059856502	1
15	121	2.432457440109	0
15	121	10.283266492886	1
15	360	10.285664076493	0
15	360	35.63154665171	1
15	539	35.633944235317	0
15	539	52.00688854046	1
15	596	52.009286124067	0
15	596	58.648826228686	1
15	658	58.651223812293	0
15	658	63.575390764976	1
15	694	63.577788348583	0
15	694	66.965743693521	1
15	896	66.968141277128	0
15	896	86.330309458307	1
15	953	86.332707041914	0
15	953	89.698698775374	1
15	1091	89.701096358981	0
15	1091	100.627001312558	1
15	1224	100.629398896165	0
15	1224	114.39352250029	1
15	1303	114.395920083897	0
15	1303	123.579542199147	1
15	1318	123.581939782754	0
15	1318	125.818108459466	1
15	1361	125.820506043073	0
15	1361	129.114552602635	1
15	1531	129.116950186242	0
15	1531	145.012668789362	1
15	1739	145.015066372969	0
15	1739	163.56433067098	1
15	1768	163.566728254587	0
15	1768	165.840413421157	1
15	1868	165.842811004764	0
15	1868	174.865148147798	1
15	1945	174.867545731405	0
15	1945	181.723061820257	1
15	2015	181.725459403864	0
15	2015	186.534914911955	1
15	2055	186.537312495562	0
15	2055	190.604219708356	1
15	2159	190.606617291963	0
15	2159	199.811453029744	1
15	2169	199.813850613351	0
16	0	0	0
16	8	0	0
16	8	2.354823271278	1
16	55	2.358620985654	0
16	55	4.760477791074	1
16	92	4.76427550545	0
16	92	8.071573649067	1
16	132	8.075371363443	0
16	132	10.458352544112	1
16	206	10.462150258488	0
16	206	18.550426738103	1
16	239	18.554224452479	0
16	239	21.90390437981	1
16	309	21.907702094186	0
16	309	29.645742493215	1
16	345	29.649540207591	0
16	345	32.755166780435	1
16	391	32.758964494811	0
16	391	39.364233339903	1
16	453	39.368031054279	0
16	453	45.575453468132	1
16	514	45.579251182508	0
16	514	49.822962976293	1
16	637	49.826760690669	0
16	637	61.936787284444	1
16	722	61.94058499882	0
16	722	68.999975974903	1
16	755	69.003773689279	0
16	755	73.19034205377	1
16	863	73.194139768146	0
16	863	82.891522192395	1
16	907	82.895319906771	0
16	907	86.656473544658	1
16	939	86.660271259034	0
16	939	89.302996577927	1
16	1044	89.306794292303	0
16	1044	95.971551522146	1
16	1065	95.975349236522	0
16	1065	98.221818826393	1
16	1102	98.225616540769	0
16	1102	100.944305157986	1
16	1257	100.948102872362	0
16	1257	117.360293766249	1
16	1279	117.364091480625	0
16	1279	120.391110264694	1
16	1350	120.39490797907	0
16	1350	127.645069241288	1
16	1411	127.648866955664	0
16	1411	133.137238149993	1
16	1454	133.141035864369	0
16	1454	137.181315550344	1
16	1480	137.18511326472	0
16	1480	140.737820993174	1
16	1512	140.74161870755	0
16	1512	144.163689326491	1
16	1560	144.167487040867	0
16	1560	147.140743626045	1
16	1603	147.144541340421	0
16	1603	151.541879002467	1
16	1675	151.545676716843	0
16	1675	158.596663400294	1
16	1761	158.60046111467	0
16	1761	165.743400617499	1
16	1934	165.747198331875	0
16	1934	180.120604351857	1
16	1974	180.124402066233	0
16	1974	182.818485323801	1
16	1993	182.822283038177	0
16	1993	185.708154121177	1
16	2040	185.711951835553	0
16	2040	188.025872596536	1
16	2077	188.029670310912	0
16	2077	191.148606345054	1
16	2117	191.15240405943	0
16	2117	195.666173707457	1
16	2152	195.669971421833	0
16	2152	199.76489889179	1
16	2169	199.768696606166	0
17	0	0	0
17	34	0	0
17	34	3.393735592706	1
17	67	3.395439703847	0
17	67	6.060699749259	1
17	102	6.0624038604	0
17	102	8.75100727682	1
17	181	8.752711387961	0
17	181	15.885690120049	1
17	221	15.88739423119	0
17	221	19.276944053112	1
17	406	19.278648164253	0
17	406	39.386166084077	1
17	445	39.387870195218	0
17	445	43.770255994983	1
17	482	43.771960106124	0
17	482	46.640488824807	1
17	583	46.642192935948	0
17	583	56.553696560192	1
17	622	56.555400671333	0
17	622	59.775246453223	1
17	630	59.776950564364	0
17	630	60.458757256855	1
17	669	60.460461367996	0
17	669	64.708755000028	1
17	712	64.710459111169	0
17	712	67.744810035684	1
17	737	67.746514146825	0
17	737	71.586707893292	1
17	770	71.588412004433	0
17	770	73.328348943017	1
17	777	73.330053054158	0
17	777	74.216239155502	1
17	824	74.217943266643	0
17	824	78.2390589977	1
17	888	78.240763108841	0
17	888	84.314334224909	1
17	965	84.31603833605	0
17	965	89.709216376518	1
17	1001	89.710920487659	0
17	1001	92.353858586152	1
17	1037	92.355562697293	0