version 3
run NetSDN_ML_Comparison-0-20251116-21:16:26-5760
attr configname NetSDN_ML_Comparison
attr datetime 20251116-21:16:26
attr datetimef 20251116-211626
attr experiment NetSDN_ML_Comparison
attr inifile omnetpp_ml.ini
attr iterationvars "$mlEnabled=false, $threshold=30"
attr iterationvarsd mlEnabled=false/threshold=30
attr iterationvarsf mlEnabled=false,threshold=30-
attr measurement "$mlEnabled=false, $threshold=30"
attr network modelingproject4sdn.simulations.NetSDN_ML
attr processid 5760
attr repetition 0
attr replication #0
attr resultdir results
attr runnumber 0
attr seedset 0
itervar mlEnabled false
itervar threshold 30
config extends NetSDN_ML
config description "Compare traditional vs ML routing"
config repeat 5
config **.sdn.controller.enableMLRouting false
config **.sdn.controller.trainingThreshold 30
config network modelingproject4sdn.simulations.NetSDN_ML
config description "ML-Enhanced SDN Routing"
config **.sdn.controller.discoveryInterval 5s
config **.sdn.controller.datasetFile "\"sdn_dataset.csv\""
config **.sdn.controller.enableMLRouting false
config **.sdn.controller.trainingThreshold 50
config **.device*.appType "\"App\""
config **.device*.app.destAddresses "\"1 3 4\""
config **.device*.app.sendIaTime "uniform(2s, 5s)"
config **.device*.app.packetLength "2048 bytes"
config **.frameCapacity 100
config **.useCutThroughSwitching false
config **.result-recording-modes all
config network modelingproject4sdn.simulations.NetSDN_ML
config description "SDN Network with ML-based Smart Routing"
config sim-time-limit 300s
config **.vector-recording true
config **.scalar-recording true

vector 0 NetSDN_ML.device1.port$o[0].channel busy:vector ETV
attr interpolationmode sample-hold
attr recordingmode vector
attr source channelBusy
vector 1 NetSDN_ML.sdn.port$o[0].channel busy:vector ETV
attr interpolationmode sample-hold
attr recordingmode vector
attr source channelBusy
vector 2 NetSDN_ML.device2.port$o[0].channel busy:vector ETV
attr interpolationmode sample-hold
attr recordingmode vector
attr source channelBusy
vector 3 NetSDN_ML.sdn.port$o[1].channel busy:vector ETV
attr interpolationmode sample-hold
attr recordingmode vector
attr source channelBusy
vector 4 NetSDN_ML.device3.port$o[0].channel busy:vector ETV
attr interpolationmode sample-hold
attr recordingmode vector
attr source channelBusy
vector 5 NetSDN_ML.sdn.port$o[2].channel busy:vector ETV
attr interpolationmode sample-hold
attr recordingmode vector
attr source channelBusy
vector 6 NetSDN_ML.device4.port$o[0].channel busy:vector ETV
attr interpolationmode sample-hold
attr recordingmode vector
attr source channelBusy
vector 7 NetSDN_ML.sdn.port$o[3].channel busy:vector ETV
attr interpolationmode sample-hold
attr recordingmode vector
attr source channelBusy
vector 8 NetSDN_ML.device5.port$o[0].channel busy:vector ETV
attr interpolationmode sample-hold
attr recordingmode vector
attr source channelBusy
vector 9 NetSDN_ML.sdn.port$o[4].channel busy:vector ETV
attr interpolationmode sample-hold
attr recordingmode vector
attr source channelBusy
vector 10 NetSDN_ML.device1.port$o[1].channel busy:vector ETV
attr interpolationmode sample-hold
attr recordingmode vector
attr source channelBusy
vector 11 NetSDN_ML.device2.port$o[1].channel busy:vector ETV
attr interpolationmode sample-hold
attr recordingmode vector
attr source channelBusy
vector 12 NetSDN_ML.device1.port$o[2].channel busy:vector ETV
attr interpolationmode sample-hold
attr recordingmode vector
attr source channelBusy
vector 13 NetSDN_ML.device4.port$o[1].channel busy:vector ETV
attr interpolationmode sample-hold
attr recordingmode vector
attr source channelBusy
vector 14 NetSDN_ML.device2.port$o[2].channel busy:vector ETV
attr interpolationmode sample-hold
attr recordingmode vector
attr source channelBusy
vector 15 NetSDN_ML.device5.port$o[1].channel busy:vector ETV
attr interpolationmode sample-hold
attr recordingmode vector
attr source channelBusy
vector 16 NetSDN_ML.device3.port$o[1].channel busy:vector ETV
attr interpolationmode sample-hold
attr recordingmode vector
attr source channelBusy
vector 17 NetSDN_ML.device4.port$o[2].channel busy:vector ETV
attr interpolationmode sample-hold
attr recordingmode vector
attr source channelBusy
vector 18 NetSDN_ML.device3.port$o[2].channel busy:vector ETV
attr interpolationmode sample-hold
attr recordingmode vector
attr source channelBusy
vector 19 NetSDN_ML.device5.port$o[2].channel busy:vector ETV
attr interpolationmode sample-hold
attr recordingmode vector
attr source channelBusy
vector 20 NetSDN_ML.device4.port$o[3].channel busy:vector ETV
attr interpolationmode sample-hold
attr recordingmode vector
attr source channelBusy
vector 21 NetSDN_ML.device5.port$o[3].channel busy:vector ETV
attr interpolationmode sample-hold
attr recordingmode vector
attr source channelBusy
vector 22 NetSDN_ML.sdn.queue[0] qlen:vector ETV
attr interpolationmode sample-hold
attr recordingmode vector
attr title "queue length"
vector 23 NetSDN_ML.sdn.queue[0] busy:vector ETV
attr interpolationmode sample-hold
attr recordingmode vector
attr title "server busy state"
vector 24 NetSDN_ML.sdn.queue[1] qlen:vector ETV
attr interpolationmode sample-hold
attr recordingmode vector
attr title "queue length"
vector 25 NetSDN_ML.sdn.queue[1] busy:vector ETV
attr interpolationmode sample-hold
attr recordingmode vector
attr title "server busy state"
vector 26 NetSDN_ML.sdn.queue[2] qlen:vector ETV
attr interpolationmode sample-hold
attr recordingmode vector
attr title "queue length"
vector 27 NetSDN_ML.sdn.queue[2] busy:vector ETV
attr interpolationmode sample-hold
attr recordingmode vector
attr title "server busy state"
vector 28 NetSDN_ML.sdn.queue[3] qlen:vector ETV
attr interpolationmode sample-hold
attr recordingmode vector
attr title "queue length"
vector 29 NetSDN_ML.sdn.queue[3] busy:vector ETV
attr interpolationmode sample-hold
attr recordingmode vector
attr title "server busy state"
vector 30 NetSDN_ML.sdn.queue[4] qlen:vector ETV
attr interpolationmode sample-hold
attr recordingmode vector
attr title "queue length"
vector 31 NetSDN_ML.sdn.queue[4] busy:vector ETV
attr interpolationmode sample-hold
attr recordingmode vector
attr title "server busy state"
vector 32 NetSDN_ML.device1.queue[0] qlen:vector ETV
attr interpolationmode sample-hold
attr recordingmode vector
attr title "queue length"
vector 33 NetSDN_ML.device1.queue[0] busy:vector ETV
attr interpolationmode sample-hold
attr recordingmode vector
attr title "server busy state"
vector 34 NetSDN_ML.device1.queue[1] qlen:vector ETV
attr interpolationmode sample-hold
attr recordingmode vector
attr title "queue length"
vector 35 NetSDN_ML.device1.queue[1] busy:vector ETV
attr interpolationmode sample-hold
attr recordingmode vector
attr title "server busy state"
vector 36 NetSDN_ML.device1.queue[2] qlen:vector ETV
attr interpolationmode sample-hold
attr recordingmode vector
attr title "queue length"
vector 37 NetSDN_ML.device1.queue[2] busy:vector ETV
attr interpolationmode sample-hold
attr recordingmode vector
attr title "server busy state"
vector 38 NetSDN_ML.device2.queue[0] qlen:vector ETV
attr interpolationmode sample-hold
attr recordingmode vector
attr title "queue length"
vector 39 NetSDN_ML.device2.queue[0] busy:vector ETV
attr interpolationmode sample-hold
attr recordingmode vector
attr title "server busy state"
vector 40 NetSDN_ML.device2.queue[1] qlen:vector ETV
attr interpolationmode sample-hold
attr recordingmode vector
attr title "queue length"
vector 41 NetSDN_ML.device2.queue[1] busy:vector ETV
attr interpolationmode sample-hold
attr recordingmode vector
attr title "server busy state"
vector 42 NetSDN_ML.device2.queue[2] qlen:vector ETV
attr interpolationmode sample-hold
attr recordingmode vector
attr title "queue length"
vector 43 NetSDN_ML.device2.queue[2] busy:vector ETV
attr interpolationmode sample-hold
attr recordingmode vector
attr title "server busy state"
vector 44 NetSDN_ML.device3.queue[0] qlen:vector ETV
attr interpolationmode sample-hold
attr recordingmode vector
attr title "queue length"
vector 45 NetSDN_ML.device3.queue[0] busy:vector ETV
attr interpolationmode sample-hold
attr recordingmode vector
attr title "server busy state"
vector 46 NetSDN_ML.device3.queue[1] qlen:vector ETV
attr interpolationmode sample-hold
attr recordingmode vector
attr title "queue length"
vector 47 NetSDN_ML.device3.queue[1] busy:vector ETV
attr interpolationmode sample-hold
attr recordingmode vector
attr title "server busy state"
vector 48 NetSDN_ML.device3.queue[2] qlen:vector ETV
attr interpolationmode sample-hold
attr recordingmode vector
attr title "queue length"
vector 49 NetSDN_ML.device3.queue[2] busy:vector ETV
attr interpolationmode sample-hold
attr recordingmode vector
attr title "server busy state"
vector 50 NetSDN_ML.device4.queue[0] qlen:vector ETV
attr interpolationmode sample-hold
attr recordingmode vector
attr title "queue length"
vector 51 NetSDN_ML.device4.queue[0] busy:vector ETV
attr interpolationmode sample-hold
attr recordingmode vector
attr title "server busy state"
vector 52 NetSDN_ML.device4.queue[1] qlen:vector ETV
attr interpolationmode sample-hold
attr recordingmode vector
attr title "queue length"
vector 53 NetSDN_ML.device4.queue[1] busy:vector ETV
attr interpolationmode sample-hold
attr recordingmode vector
attr title "server busy state"
vector 54 NetSDN_ML.device4.queue[2] qlen:vector ETV
attr interpolationmode sample-hold
attr recordingmode vector
attr title "queue length"
vector 55 NetSDN_ML.device4.queue[2] busy:vector ETV
attr interpolationmode sample-hold
attr recordingmode vector
attr title "server busy state"
vector 56 NetSDN_ML.device4.queue[3] qlen:vector ETV
attr interpolationmode sample-hold
attr recordingmode vector
attr title "queue length"
vector 57 NetSDN_ML.device4.queue[3] busy:vector ETV
attr interpolationmode sample-hold
attr recordingmode vector
attr title "server busy state"
vector 58 NetSDN_ML.device5.queue[0] qlen:vector ETV
attr interpolationmode sample-hold
attr recordingmode vector
attr title "queue length"
vector 59 NetSDN_ML.device5.queue[0] busy:vector ETV
attr interpolationmode sample-hold
attr recordingmode vector
attr title "server busy state"
vector 60 NetSDN_ML.device5.queue[1] qlen:vector ETV
attr interpolationmode sample-hold
attr recordingmode vector
attr title "queue length"
vector 61 NetSDN_ML.device5.queue[1] busy:vector ETV
attr interpolationmode sample-hold
attr recordingmode vector
attr title "server busy state"
vector 62 NetSDN_ML.device5.queue[2] qlen:vector ETV
attr interpolationmode sample-hold
attr recordingmode vector
attr title "queue length"
vector 63 NetSDN_ML.device5.queue[2] busy:vector ETV
attr interpolationmode sample-hold
attr recordingmode vector
attr title "server busy state"
vector 64 NetSDN_ML.device5.queue[3] qlen:vector ETV
attr interpolationmode sample-hold
attr recordingmode vector
attr title "queue length"
vector 65 NetSDN_ML.device5.queue[3] busy:vector ETV
attr interpolationmode sample-hold
attr recordingmode vector
attr title "server busy state"
vector 66 NetSDN_ML.device3.queue[1] txBytes:vector ETV
attr interpolationmode none
attr recordingmode vector
attr title "transmitting packet byte length"
attr unit bytes
vector 67 NetSDN_ML.device4.queue[2] rxBytes:vector ETV
attr interpolationmode none
attr recordingmode vector
attr title "received packet byte length"
attr unit bytes
vector 68 NetSDN_ML.device4.queue[1] txBytes:vector ETV
attr interpolationmode none
attr recordingmode vector
attr title "transmitting packet byte length"
attr unit bytes
vector 69 NetSDN_ML.device1.queue[2] rxBytes:vector ETV
attr interpolationmode none
attr recordingmode vector
attr title "received packet byte length"
attr unit bytes
vector 70 NetSDN_ML.device1.app endToEndDelay:vector ETV
attr interpolationmode none
attr recordingmode vector
attr title "end-to-end delay of arrived packets"
attr unit s
vector 71 NetSDN_ML.device1.app hopCount:vector ETV
attr interpolationmode none
attr recordingmode vector
attr title "hop count of arrived packets"
vector 72 NetSDN_ML.device1.app sourceAddress:vector ETV
attr interpolationmode none
attr recordingmode vector
attr title "source address of arrived packets"
vector 73 NetSDN_ML.device5.queue[1] txBytes:vector ETV
attr interpolationmode none
attr recordingmode vector
attr title "transmitting packet byte length"
attr unit bytes
vector 74 NetSDN_ML.device2.queue[2] rxBytes:vector ETV
attr interpolationmode none
attr recordingmode vector
attr title "received packet byte length"
attr unit bytes
vector 75 NetSDN_ML.device2.queue[1] txBytes:vector ETV
attr interpolationmode none
attr recordingmode vector
attr title "transmitting packet byte length"
attr unit bytes
vector 76 NetSDN_ML.device1.queue[1] rxBytes:vector ETV
attr interpolationmode none
attr recordingmode vector
attr title "received packet byte length"
attr unit bytes
vector 77 NetSDN_ML.device1.queue[2] txBytes:vector ETV
attr interpolationmode none
attr recordingmode vector
attr title "transmitting packet byte length"
attr unit bytes
vector 78 NetSDN_ML.device4.queue[1] rxBytes:vector ETV
attr interpolationmode none
attr recordingmode vector
attr title "received packet byte length"
attr unit bytes
vector 79 NetSDN_ML.device4.queue[2] txBytes:vector ETV
attr interpolationmode none
attr recordingmode vector
attr title "transmitting packet byte length"
attr unit bytes
vector 80 NetSDN_ML.device3.queue[1] rxBytes:vector ETV
attr interpolationmode none
attr recordingmode vector
attr title "received packet byte length"
attr unit bytes
vector 81 NetSDN_ML.device3.app endToEndDelay:vector ETV
attr interpolationmode none
attr recordingmode vector
attr title "end-to-end delay of arrived packets"
attr unit s
vector 82 NetSDN_ML.device3.app hopCount:vector ETV
attr interpolationmode none
attr recordingmode vector
attr title "hop count of arrived packets"
vector 83 NetSDN_ML.device3.app sourceAddress:vector ETV
attr interpolationmode none
attr recordingmode vector
attr title "source address of arrived packets"
vector 84 NetSDN_ML.device4.app endToEndDelay:vector ETV
attr interpolationmode none
attr recordingmode vector
attr title "end-to-end delay of arrived packets"
attr unit s
vector 85 NetSDN_ML.device4.app hopCount:vector ETV
attr interpolationmode none
attr recordingmode vector
attr title "hop count of arrived packets"
vector 86 NetSDN_ML.device4.app sourceAddress:vector ETV
attr interpolationmode none
attr recordingmode vector
attr title "source address of arrived packets"
vector 87 NetSDN_ML.sdn.controller topologyUpdated:vector ETV
attr recordingmode vector
attr title "topology update events"
vector 88 NetSDN_ML.device5.queue[2] txBytes:vector ETV
attr interpolationmode none
attr recordingmode vector
attr title "transmitting packet byte length"
attr unit bytes
vector 89 NetSDN_ML.device3.queue[2] rxBytes:vector ETV
attr interpolationmode none
attr recordingmode vector
attr title "received packet byte length"
attr unit bytes
vector 90 NetSDN_ML.device5.queue[3] txBytes:vector ETV
attr interpolationmode none
attr recordingmode vector
attr title "transmitting packet byte length"
attr unit bytes
vector 91 NetSDN_ML.device4.queue[3] rxBytes:vector ETV
attr interpolationmode none
attr recordingmode vector
attr title "received packet byte length"
attr unit bytes
vector 92 NetSDN_ML.device2.queue[2] txBytes:vector ETV
attr interpolationmode none
attr recordingmode vector
attr title "transmitting packet byte length"
attr unit bytes
vector 93 NetSDN_ML.device5.queue[1] rxBytes:vector ETV
attr interpolationmode none
attr recordingmode vector
attr title "received packet byte length"
attr unit bytes
0	0	0	0
0	3288	0	0
1	0	0	0
1	3288	0	0
2	0	0	0
2	3288	0	0
3	0	0	0
3	3288	0	0
4	0	0	0
4	3288	0	0
5	0	0	0
5	3288	0	0
6	0	0	0
6	3288	0	0
7	0	0	0
7	3288	0	0
8	0	0	0
8	3288	0	0
9	0	0	0
9	3288	0	0
10	0	0	0
10	3288	0	0
11	0	0	0
11	23	0	0
11	23	2.433337861786	1
11	48	2.436417679976	0
11	48	4.341587526957	1
11	81	4.344667345147	0
11	81	7.69143749564	1
11	110	7.69451731383	0
11	110	10.204166254029	1
11	125	10.207246072219	0
11	125	10.28654449817	1
11	195	10.28962431636	0
11	195	18.075977189467	1
11	253	18.079057007657	0
11	253	23.006260461873	1
11	274	23.009340280063	0
11	274	26.706064807252	1
11	295	26.709144625442	0
11	295	28.734134912492	1
11	338	28.737214730682	0
11	338	31.927597167437	1
11	364	31.930676985627	0
11	364	35.634824656994	1
11	371	35.637904475184	0
11	371	36.195917241742	1
11	421	36.198997059932	0
11	421	41.131630013465	1
11	464	41.134709831655	0
11	464	45.999880932738	1
11	543	46.002960750928	0
11	543	52.010166545744	1
11	600	52.013246363934	0
11	600	58.65210423397	1
11	648	58.65518405216	0
11	648	62.073717042339	1
11	662	62.076796860529	0
11	662	63.57866877026	1
11	684	63.58174858845	0
11	684	65.090672391701	1
11	698	65.093752209891	0
11	698	66.969021698805	1
11	705	66.972101516995	0
11	705	67.186189163478	1
11	744	67.189268981668	0
11	744	72.163378350438	1
11	791	72.166458168628	0
11	791	74.819626454032	1
11	900	74.822706272222	0
11	900	86.333587463591	1
11	932	86.336667281781	0
11	932	87.157804358752	1
11	960	87.160884176942	0
11	960	89.701976780658	1
11	983	89.705056598848	0
11	983	92.030156926719	1
11	1015	92.033236744909	0
11	1015	94.554883543403	1
11	1051	94.557963361593	0
11	1051	97.049760157709	1
11	1095	97.052839975899	0
11	1095	100.630279317842	1
11	1113	100.633359136032	0
11	1113	101.244841432898	1
11	1141	101.247921251088	0
11	1141	104.782021829393	1
11	1174	104.785101647583	0
11	1174	109.418631046079	1
11	1213	109.421710864269	0
11	1213	113.952281279489	1
11	1228	113.955361097679	0
11	1228	114.396800505574	1
11	1243	114.399880323764	0
11	1243	117.183757703984	1
11	1293	117.186837522174	0
11	1293	122.125856724568	1
11	1307	122.128936542758	0
11	1307	123.582820204431	1
11	1322	123.585900022621	0
11	1322	125.82138646475	1
11	1336	125.82446628294	0
11	1336	126.302639828762	1
11	1365	126.305719646952	0
11	1365	129.117830607919	1
11	1390	129.120910426109	0
11	1390	130.483772620326	1
11	1468	130.486852438516	0
11	1468	139.640532708727	1
11	1535	139.643612526917	0
11	1535	145.015946794646	1
11	1577	145.019026612836	0
11	1577	149.388049921487	1
11	1613	149.391129739677	0
11	1613	153.128641244723	1
11	1653	153.131721062913	0
11	1653	156.638923524414	1
11	1686	156.642003342604	0
11	1686	158.893926733174	1
11	1722	158.897006551364	0
11	1722	162.166023488623	1
11	1743	162.169103306813	0
11	1743	163.567608676264	1
11	1750	163.570688494454	0
11	1750	164.7217204622	1
11	1772	164.72480028039	0
11	1772	165.843691426441	1
11	1790	165.846771244631	0
11	1790	167.419952858706	1
11	1854	167.423032676896	0
11	1854	172.66838970245	1
11	1872	172.67146952064	0
11	1872	174.868426153082	1
11	1883	174.871505971272	0
11	1883	175.533585211729	1
11	1911	175.536665029919	0
11	1911	178.805852172897	1
11	1949	178.808931991087	0
11	1949	181.726339825541	1
11	2019	181.729419643731	0
11	2019	186.538192917239	1
11	2059	186.541272735429	0
11	2059	190.60749771364	1
11	2066	190.61057753183	0
11	2066	190.691028031521	1
11	2135	190.694107849711	0
11	2135	197.684460263467	1
11	2163	197.687540081657	0
11	2163	199.814731035028	1
11	2204	199.817810853218	0
11	2204	203.627084451141	1
11	2223	203.630164269331	0
11	2223	205.92069565598	1
11	2255	205.92377547417	0
11	2255	207.403775705137	1
11	2334	207.406855523327	0
11	2334	215.515650698916	1
11	2399	215.518730517106	0
11	2399	221.980157193607	1
11	2420	221.983237011797	0
11	2420	222.752346352442	1
11	2456	222.755426170632	0
11	2456	225.621673981427	1
11	2489	225.624753799617	0
11	2489	228.949580096053	1
11	2555	228.952659914243	0
11	2555	235.11874935112	1
11	2562	235.12182916931	0
11	2562	235.483409885551	1
11	2586	235.486489703741	0
11	2586	238.621478110087	1
11	2600	238.624557928277	0
11	2600	239.734106561747	1
11	2611	239.737186379937	0
11	2611	240.969773142367	1
11	2650	240.972852960557	0
11	2650	244.710093866336	1
11	2727	244.713173684526	0
11	2727	251.019449905373	1
11	2759	251.022529723563	0
11	2759	255.704420597061	1
11	2774	255.707500415251	0
11	2774	255.958030683568	1
11	2802	255.961110501758	0
11	2802	259.50156891078	1
11	2812	259.50464872897	0
11	2812	259.603606625461	1
11	2841	259.606686443651	0
11	2841	262.8119068963	1
11	2885	262.81498671449	0
11	2885	266.231142351984	1
11	2899	266.234222170174	0
11	2899	267.481287860313	1
11	2921	267.484367678503	0
11	2921	269.802300275538	1
11	2974	269.805380093728	0
11	2974	274.477703165498	1
11	2993	274.480782983688	0
11	2993	275.924941506817	1
11	3031	275.928021325007	0
11	3031	279.432503081395	1
11	3061	279.435582899585	0
11	3061	281.647220544631	1
11	3068	281.650300362821	0
11	3068	281.804036338118	1
11	3100	281.807116156308	0
11	3100	284.014162904353	1
11	3111	284.017242722543	0
11	3111	284.942500920615	1
11	3144	284.945580738805	0
11	3144	288.341572555949	1
11	3206	288.344652374139	0
11	3206	293.218999305976	1
11	3254	293.222079124166	0
11	3254	296.509509142836	1
11	3288	296.512588961026	0
12	0	0	0
12	30	0	0
12	30	3.384438088397	1
12	63	3.388050827514	0
12	63	6.05140224495	1
12	85	6.055014984067	0
12	85	7.699810974096	1
12	114	7.703423713213	0
12	114	10.212539732485	1
12	199	10.216152471602	0
12	199	18.084350667923	1
12	217	18.08796340704	0
12	217	19.267646548803	1
12	232	19.27125928792	0
12	232	21.385209915693	1
12	257	21.38882265481	0
12	257	23.014633940329	1
12	278	23.018246679446	0
12	278	26.714438285708	1
12	299	26.718051024825	0
12	299	28.742508390948	1
12	321	28.746121130065	0
12	321	30.668755669378	1
12	399	30.672368408495	0
12	399	39.376868579768	1
12	425	39.380481318885	0
12	425	41.140003491921	1
12	468	41.143616231038	0
12	468	46.008254411194	1
12	489	46.011867150311	0
12	489	46.879065918967	1
12	579	46.882678658084	0
12	579	56.544399055883	1
12	618	56.548011795	0
12	618	59.765948948914	1
12	676	59.769561688031	0
12	676	64.90144850849	1
12	748	64.905061247607	0
12	748	72.171751828894	1
12	766	72.175364568011	0
12	766	73.319051438708	1
12	795	73.322664177825	0
12	795	74.827999932488	1
12	820	74.831612671605	0
12	820	78.229761493391	1
12	925	78.233374232508	0
12	925	86.938093936069	1
12	956	86.941706675186	0
12	956	89.699918872209	1
12	990	89.703531611326	0
12	990	92.038530405175	1
12	997	92.042143144292	0
12	997	92.344561081843	1
12	1019	92.34817382096	0
12	1019	94.563257021859	1
12	1079	94.566869760976	0
12	1079	99.828715950481	1
12	1127	99.832328689598	0
12	1127	104.617303904842	1
12	1163	104.620916643959	0
12	1163	108.436730291459	1
12	1178	108.440343030576	0
12	1178	109.427004524535	1
12	1203	109.430617263652	0
12	1203	113.059594201154	1
12	1217	113.063206940271	0
12	1217	113.960654757945	1
12	1247	113.964267497062	0
12	1247	117.19213118244	1
12	1340	117.195743921557	0
12	1340	126.311013307218	1
12	1372	126.314626046335	0
12	1372	129.453935104186	1
12	1404	129.457547843303	0
12	1404	132.822356796354	1
12	1472	132.825969535471	0
12	1472	139.648906187183	1
12	1501	139.6525189263	0
12	1501	141.688838811588	1
12	1549	141.692451550705	0
12	1549	145.637227906609	1
12	1581	145.640840645726	0
12	1581	149.396423399943	1
12	1589	149.40003613906	0
12	1589	150.368862063155	1
12	1617	150.372474802272	0
12	1617	153.137014723179	1
12	1627	153.140627462296	0
12	1627	154.639198001937	1
12	1657	154.642810741054	0
12	1657	156.64729700287	1
12	1664	156.650909741987	0
12	1664	156.931604061506	1
12	1690	156.935216800623	0
12	1690	158.90230021163	1
12	1726	158.905912950747	0
12	1726	162.174396967079	1
12	1779	162.178009706196	0
12	1779	166.786437037165	1
12	1800	166.790049776282	0
12	1800	168.883832925462	1
12	1836	168.887445664579	0
12	1836	171.230285804017	1
12	1858	171.233898543134	0
12	1858	172.676763180906	1
12	1887	172.680375920023	0
12	1887	175.541958690185	1
12	1894	175.545571429302	0
12	1894	176.198515128341	1
12	1915	176.202127867458	0
12	1915	178.814225651353	1
12	1922	178.81783839047	0
12	1922	179.482018277279	1
12	1963	179.485631016396	0
12	1963	182.674618771995	1
12	2026	182.678231511112	0
12	2026	186.766043602951	1
12	2070	186.769656342068	0
12	2070	190.699401509977	1
12	2124	190.703014249094	0
12	2124	195.731395659033	1
12	2189	195.73500839815	0
12	2189	201.962197018085	1
12	2227	201.965809757202	0
12	2227	205.929069134436	1
12	2298	205.932681873553	0
12	2298	211.056976490418	1
12	2315	211.060589229535	0
12	2315	214.102404458678	1
12	2338	214.106017197795	0
12	2338	215.524024177372	1
12	2362	215.527636916489	0
12	2362	218.780991196396	1
12	2406	218.784603935513	0
12	2406	222.161650319813	1
12	2427	222.16526305893	0
12	2427	224.187185084444	1
12	2460	224.190797823561	0
12	2460	225.630047459883	1
12	2474	225.633660199	0
12	2474	228.203056499126	1
12	2569	228.206669238243	0
12	2569	235.602362093279	1
12	2615	235.605974832396	0
12	2615	240.978146620823	1
12	2622	240.98175935994	0
12	2622	241.750820496116	1
12	2654	241.754433235233	0
12	2654	244.718467344792	1
12	2662	244.722080083909	0
12	2662	245.090003740039	1
12	2711	245.093616479156	0
12	2711	249.725481629601	1
12	2763	249.729094368718	0
12	2763	255.712794075517	1
12	2784	255.716406814634	0
12	2784	256.570367990989	1
12	2816	256.573980730106	0
12	2816	259.611980103917	1
12	2848	259.615592843034	0
12	2848	263.355880821353	1
12	2867	263.35949356047	0
12	2867	265.696338573002	1
12	2903	265.699951312119	0
12	2903	267.489661338769	1
12	2928	267.493274077886	0
12	2928	269.810673753994	1
12	2942	269.814286493111	0
12	2942	269.992150339062	1
12	2963	269.995763078179	0
12	2963	274.287133672039	1
12	3035	274.290746411156	0
12	3035	279.440876559851	1
12	3042	279.444489298968	0
12	3042	279.786400669019	1
12	3072	279.790013408136	0
12	3072	281.812409816574	1
12	3089	281.816022555691	0
12	3089	283.927701279286	1
12	3133	283.931314018403	0
12	3133	286.259132611097	1
12	3148	286.262745350214	0
12	3148	288.349946034405	1
12	3177	288.353558773522	0
12	3177	290.256165800381	1
12	3210	290.259778539498	0
12	3210	293.227372784432	1
12	3232	293.230985523549	0
12	3232	295.232387340625	1
12	3288	295.236000079742	0
13	0	0	0
13	12	0	0
13	12	2.358832967461	1
13	41	2.360754909917	0
13	41	3.919763050973	1
13	136	3.921684993429	0
13	136	10.462362240295	1
13	210	10.464284182751	0
13	210	18.554436434286	1
13	313	18.556358376742	0
13	313	29.649752189398	1
13	349	29.651674131854	0
13	349	32.759176476618	1
13	395	32.761098419074	0
13	395	39.368243036086	1
13	413	39.370164978542	0
13	413	39.791250752518	1
13	457	39.793172694974	0
13	457	45.579463164315	1
13	553	45.581385106771	0
13	553	54.782046567648	1
13	641	54.783968510104	0
13	641	61.940796980627	1
13	759	61.942718923083	0
13	759	73.194351749953	1
13	803	73.196273692409	0
13	803	76.47212585667	1
13	846	76.474047799126	0
13	846	80.325099614215	1
13	867	80.327021556671	0
13	867	82.895531888578	1
13	911	82.897453831034	0
13	911	86.660483240841	1
13	918	86.662405183297	0
13	918	86.871242054505	1
13	943	86.873163996961	0
13	943	89.30700627411	1
13	979	89.308928216566	0
13	979	92.020650452002	1
13	1058	92.022572394458	0
13	1058	97.85057626129	1
13	1106	97.852498203746	0
13	1106	100.948314854169	1
13	1120	100.950236796625	0
13	1120	102.736385411814	1
13	1156	102.73830735427	0
13	1156	107.668870817635	1
13	1236	107.670792760091	0
13	1236	116.072837653568	1
13	1261	116.074759596024	0
13	1261	117.364303462432	1
13	1283	117.366225404888	0
13	1283	120.395119960877	1
13	1354	120.397041903333	0
13	1354	127.649078937471	1
13	1415	127.651000879927	0
13	1415	133.141247846176	1
13	1437	133.143169788632	0
13	1437	135.50338628236	1
13	1461	135.505308224816	0
13	1461	138.09454911528	1
13	1542	138.096471057736	0
13	1542	145.168311798711	1
13	1679	145.170233741167	0
13	1679	158.600673096477	1
13	1704	158.602595038933	0
13	1704	159.730036917607	1
13	1938	159.731958860063	0
13	1938	180.12461404804	1
13	1997	180.126535990496	0
13	1997	185.71216381736	1
13	2033	185.714085759816	0
13	2033	186.795206024543	1
13	2081	186.797127966999	0
13	2081	191.152616041237	1
13	2145	191.154537983693	0
13	2145	198.686632283031	1
13	2182	198.688554225487	0
13	2182	201.143696391488	1
13	2215	201.145618333944	0
13	2215	203.857140093333	1
13	2244	203.859062035789	0
13	2244	207.077340118577	1
13	2265	207.079262061033	0
13	2265	209.413412848486	1
13	2345	209.415334790942	0
13	2345	215.562522422521	1
13	2388	215.564444364977	0
13	2388	221.79192904056	1
13	2446	221.793850983016	0
13	2446	225.009756009317	1
13	2536	225.011677951773	0
13	2536	232.217732297479	1
13	2543	232.219654239935	0
13	2543	233.795999922557	1
13	2579	233.797921865013	0
13	2579	237.009274734184	1
13	2629	237.01119667664	0
13	2629	241.914133978076	1
13	2978	241.916055920532	0
13	2978	274.483933079289	1
13	3079	274.485855021745	0
13	3079	282.15884980862	1
13	3192	282.160771751076	0
13	3192	291.294152581822	1
13	3199	291.296074524278	0
13	3199	293.150768522639	1
13	3275	293.152690465095	0
13	3275	297.462792005623	1
13	3288	297.464713948079	0
14	0	0	0
14	156	0	0
14	156	14.106988413493	1
14	496	14.111047309647	0
14	496	48.406303138473	1
14	525	48.410362034627	0
14	525	51.700558441925	1
14	561	51.704617338079	0
14	561	55.04433696298	1
14	607	55.048395859134	0
14	607	59.381490017521	1
14	831	59.385548913675	0
14	831	78.908656911227	1