version 3
run NetSDN-0-20251116-20:31:00-12980
attr configname NetSDN
attr datetime 20251116-20:31:00
attr datetimef 20251116-203100
attr experiment NetSDN
attr inifile omnetpp.ini
attr iterationvars ""
attr iterationvarsd ""
attr iterationvarsf ""
attr measurement ""
attr network modelingproject4sdn.simulations.NetSDN
attr processid 12980
attr repetition 0
attr replication #0
attr resultdir results
attr runnumber 0
attr seedset 0
config network modelingproject4sdn.simulations.NetSDN
config description "SDN-controlled network with topology discovery"
config sim-time-limit 100s
config **.sdn.controller.discoveryInterval 5s
config **.device*.appType "\"App\""
config **.device*.app.destAddresses "\"1 3 4\""
config **.device*.app.sendIaTime "uniform(1s, 3s)"
config **.device*.app.packetLength "1024 bytes"
config **.frameCapacity 50
config **.useCutThroughSwitching false
config **.vector-recording true
config **.scalar-recording true
config **.appType "\"App\""
config **.app.packetLength "4096 bytes"

vector 0 NetSDN.device1.app endToEndDelay:vector ETV
attr interpolationmode none
attr recordingmode vector
attr title "end-to-end delay of arrived packets"
attr unit s
vector 1 NetSDN.device3.app endToEndDelay:vector ETV
attr interpolationmode none
attr recordingmode vector
attr title "end-to-end delay of arrived packets"
attr unit s
vector 2 NetSDN.device4.app endToEndDelay:vector ETV
attr interpolationmode none
attr recordingmode vector
attr title "end-to-end delay of arrived packets"
attr unit s
0	16	1.248877368108	0.012328520589
0	27	1.295619353844	0.008912782842
0	45	2.290059715576	0.010217681594
0	56	2.519313714639	0.012328520589
0	106	4.566162199713	0
0	136	5.76103286602	0.012328520589
0	147	5.8644237781	0.008912782842
0	150	6.781823533121	0
0	174	8.288406735751	0
0	221	10.592473240762	0.008912782842
0	270	13.515753675718	0
0	314	15.898109908387	0.012328520589
0	339	17.159049771793	0.010217681594
0	367	18.182095698295	0.006833569361
0	374	18.898665963273	0.010217681594
0	385	19.832555168946	0.012328520589
0	389	20.235514436383	0
0	396	20.694309081165	0.006833569361
0	428	22.532539333409	0.008912782842
0	438	22.866810049928	0.010217681594
0	459	24.89197159512	0
0	481	26.006686085561	0.008912782842
0	551	29.69740321462	0.006833569361
0	554	29.779630170204	0
0	573	31.490350328092	0.012328520589
0	615	33.540921962355	0
0	644	35.546927312922	0.010217681594
0	655	35.580908629769	0.008912782842
0	662	36.070691154087	0.006833569361
0	665	36.491964986548	0
1	38	1.939629788149	0.016671062551
1	78	3.384272559184	0.016671062551
1	85	3.531606657854	0.009629085152
1	114	5.176518112346	0.0091799278
1	171	7.973901143094	0.012378183456
1	181	8.855739211622	0.009629085152
1	184	8.90218896931	0
1	191	8.992926899269	0.0091799278
1	232	10.861768761753	0.016671062551
1	284	14.299419622328	0.0091799278
1	403	20.9383817324	0.009629085152
1	417	22.146436255995	0.016671062551
1	431	22.603335510008	0
1	456	24.159692299976	0.009629085152
1	462	24.988398693036	0
1	470	25.185109124444	0.0091799278
1	506	26.765264344327	0.0091799278
1	524	27.840110959747	0.012378183456
1	544	29.582169460133	0
1	562	30.37747189864	0.009629085152
1	580	31.526302839555	0.0091799278
1	598	32.54191305468	0.012378183456
1	605	33.186767387161	0.009629085152
1	622	34.084404875916	0.0091799278
1	633	34.356279650034	0.012378183456
1	636	34.595828933641	0
1	668	37.095827429089	0
2	67	2.575383055416	0.014324704112
2	92	4.408996012167	0.002110838995
2	103	4.449446960745	0.014324704112
2	125	5.707299557441	0.014324704112
2	157	6.954904798057	0.002110838995
2	160	7.307731736451	0
2	199	10.09850235061	0.002110838995
2	210	10.288506847733	0.014324704112
2	235	11.331066233571	0
2	242	11.93096441188	0.007491134751
2	249	12.494870506534	0.008991620809
2	256	13.051421281055	0.002110838995
2	267	13.242029029337	0.014324704112
2	277	14.130836853133	0.008991620809
2	296	15.375231926256	0.014324704112
2	303	15.541182732388	0.007491134751
2	325	16.393945329749	0.014324704112
2	332	16.973152077132	0.008991620809
2	346	17.466704408743	0.002110838995
2	353	17.83553100954	0.007491134751
2	360	18.013367178225	0.008991620809
2	406	21.032952084671	0
2	449	23.658942063731	0.014324704112
2	492	26.571109343246	0.014324704112
2	499	26.593659164489	0.002110838995
2	513	26.849197772976	0.007491134751
2	531	28.301752493356	0.002110838995
2	538	28.505104595635	0.008991620809
2	541	28.904734928161	0
2	587	31.725619648296	0.007491134751
2	612	33.496763547056	0.002110838995
0	690	37.258878862677	0.008912782842
0	708	38.322556710528	0.008912782842
0	711	38.418866938912	0
0	721	39.324240477504	0.006833569361
0	756	42.04929715914	0.010217681594
0	788	43.617069854106	0.012328520589
0	843	45.852385692469	0.012328520589
0	850	46.900670411279	0.006833569361
0	864	47.516750584891	0.010217681594
0	894	48.178542099598	0.012328520589
0	904	49.546383139425	0.006833569361
0	915	49.565600553719	0.008912782842
0	922	49.693384819733	0.010217681594
0	933	50.066610402428	0
0	944	50.996615909231	0.008912782842
0	958	51.310145831372	0.012328520589
0	983	52.459657084731	0.010217681594
0	1029	54.49441530702	0.010217681594
0	1051	55.568139644553	0.006833569361
0	1054	55.940476391465	0
0	1082	57.262347522828	0.012328520589
0	1093	57.442502410342	0.008912782842
0	1100	58.031527161346	0.006833569361
0	1103	58.864349158481	0
0	1120	59.884124448126	0.010217681594
0	1135	61.819339429029	0
0	1191	65.66368906361	0.006833569361
0	1194	66.755317319651	0
0	1208	67.151948364521	0.010217681594
0	1219	67.270492075647	0.012328520589
0	1248	68.957703074611	0.012328520589
0	1255	69.876331392745	0.010217681594
0	1267	70.045388170709	0.008912782842
0	1285	70.772185410078	0.012328520589
0	1307	71.931229583624	0.012328520589
0	1332	72.728757258108	0.010217681594
0	1339	73.475859178445	0.006833569361
0	1350	73.79552567907	0.012328520589
0	1379	75.002260673792	0
0	1392	76.470638450915	0.006833569361
0	1406	77.656001409051	0
0	1420	78.3484858509	0.012328520589
0	1437	79.050109964331	0
0	1506	83.219258801149	0.010217681594
0	1517	83.360387177863	0.008912782842
0	1630	91.110255284449	0.006833569361
0	1655	91.73487059046	0.008912782842
0	1658	92.477646342014	0
0	1675	93.717189038639	0
0	1689	94.008850243622	0.006833569361
0	1700	94.365091560113	0.012328520589
0	1718	95.192905410407	0.006833569361
0	1740	95.83057982445	0.012328520589
1	697	37.587962765173	0.0091799278
1	714	38.786530786193	0
1	732	40.477730183354	0.009629085152
1	735	41.014462691265	0
1	760	42.058347976563	0.012378183456
1	763	42.434150199405	0
1	795	44.527360998487	0.0091799278
1	813	44.998821346351	0.012378183456
1	825	45.250516499963	0.016671062551
1	832	45.576718456039	0.0091799278
1	875	48.043859080516	0.016671062551
1	897	48.180655867123	0.012378183456
1	969	51.464187298232	0.012378183456
1	976	52.048657638444	0.009629085152
1	1005	52.998183176957	0.016671062551
1	1008	53.046157267875	0
1	1022	54.412716947029	0
1	1040	54.776368841021	0.009629085152
1	1064	56.123942417091	0
1	1071	57.024028058091	0.0091799278
1	1110	59.616039052563	0.009629085152
1	1113	59.820324822793	0
1	1132	60.061858706438	0.012378183456
1	1142	61.828989976974	0.009629085152
1	1148	62.743465138132	0
1	1159	62.944614116364	0.012378183456
1	1170	63.808329608396	0.016671062551
1	1180	64.979218522085	0
1	1296	71.12658014361	0.012378183456
1	1318	72.359727251914	0.016671062551
1	1357	74.239998670223	0.0091799278
1	1368	74.592152426282	0.012378183456
1	1382	75.759066301397	0
1	1409	77.658137468578	0.009629085152
1	1467	81.043601150264	0.016671062551
1	1474	81.14586604845	0.0091799278
1	1477	81.186484190169	0
1	1499	83.156460003101	0.016671062551
1	1520	83.485410253517	0
1	1555	86.306499691214	0
1	1591	88.400354611484	0.012378183456
1	1594	88.769294374622	0
1	1604	88.917899469802	0.009629085152
1	1623	90.236520525639	0.016671062551
1	1644	91.51469890347	0.0091799278
1	1665	92.80219614548	0.009629085152
1	1682	93.970091577547	0.0091799278
1	1729	95.806409176078	0.016671062551
1	1747	96.20053356413	0.0091799278
1	1758	96.871339768276	0.016671062551
1	1768	97.32463368587	0
1	1779	97.498113972863	0.012378183456
1	1786	97.952986726931	0.0091799278
1	1797	98.10230835398	0.016671062551
1	1800	98.415952969806	0
2	679	37.115225877074	0.014324704112
2	724	39.578835424968	0
2	742	41.41115086497	0.007491134751
2	770	42.585577591162	0.008991620809
2	777	42.8486496007	0.007491134751
2	802	44.56125300315	0.008991620809
2	857	47.048922087837	0.008991620809
2	929	49.792044859018	0.002110838995
2	947	51.14205079619	0
2	994	52.895895291977	0.014324704112
2	1019	54.245713036433	0.014324704112
2	1043	54.781122656718	0.007491134751
2	1061	55.960923693914	0.008991620809
2	1145	62.631646244323	0
2	1177	64.576928452428	0.008991620809
2	1184	65.32074639993	0
2	1201	67.08406766162	0.008991620809
2	1230	68.315415668228	0.014324704112
2	1237	68.565073137351	0.007491134751
2	1274	70.283615971629	0.007491134751
2	1325	72.496655744806	0.008991620809
2	1375	74.950744272515	0.008991620809
2	1385	76.143099870535	0
2	1399	76.517781969465	0.008991620809
2	1423	78.537094354166	0
2	1434	78.840847852567	0.014324704112
2	1445	80.44159932791	0.008991620809
2	1456	80.878518147787	0.014324704112
2	1488	82.829097036665	0.014324704112
2	1527	84.467865794899	0
2	1534	84.480466569701	0.014324704112
2	1542	85.448077922992	0.008991620809
2	1549	86.060091529221	0.007491134751
2	1552	86.26591644902	0
2	1566	87.081223487315	0.014324704112
2	1573	87.300689678944	0.008991620809
2	1580	88.220485744712	0.007491134751
2	1597	88.779473741541	0
2	1611	89.966342586663	0.002110838995
2	1637	91.136344725836	0.002110838995
2	1672	92.984409229468	0.002110838995
2	1707	94.585107326812	0.008991620809
2	1711	95.160141502043	0
2	1765	97.264133268806	0.008991620809
2	1811	98.825969340672	0.014324704112

