version 3
run NetSDN_ML_Training-0-20251116-21:27:40-11632
attr configname NetSDN_ML_Training
attr datetime 20251116-21:27:40
attr datetimef 20251116-212740
attr experiment NetSDN_ML_Training
attr inifile omnetpp_ml.ini
attr iterationvars ""
attr iterationvarsd ""
attr iterationvarsf ""
attr measurement ""
attr network modelingproject4sdn.simulations.NetSDN_ML
attr processid 11632
attr repetition 0
attr replication #0
attr resultdir results
attr runnumber 0
attr seedset 0
config extends NetSDN_ML
config description "Training phase - collect data with traditional routing"
config sim-time-limit 200s
config **.sdn.controller.enableMLRouting false
config **.device*.app.sendIaTime "uniform(1s, 3s)"
config network modelingproject4sdn.simulations.NetSDN_ML
config description "ML-Enhanced SDN Routing"
config **.sdn.controller.discoveryInterval 5s
config **.sdn.controller.datasetFile "\"sdn_dataset.csv\""
config **.sdn.controller.enableMLRouting false
config **.sdn.controller.trainingThreshold 50
config **.device*.appType "\"App\""
config **.device*.app.destAddresses "\"1 3 4\""
config **.device*.app.sendIaTime "uniform(2s, 5s)"
config **.device*.app.packetLength "2048 bytes"
config *.device*.routing.sdnControllerAddress "\"sdn.controller\""
config *.device*.routing.discoveryInterval 10s
config *.device*.routing.sendDiscovery true
config **.frameCapacity 100
config **.useCutThroughSwitching false
config **.result-recording-modes all
config sim-time-limit 300s
config **.vector-recording true
config **.scalar-recording true

vector 0 NetSDN_ML.device1.port$o[0].channel busy:vector ETV
attr interpolationmode sample-hold
attr recordingmode vector
attr source channelBusy
vector 1 NetSDN_ML.sdn.port$o[0].channel busy:vector ETV
attr interpolationmode sample-hold
attr recordingmode vector
attr source channelBusy
vector 2 NetSDN_ML.device2.port$o[0].channel busy:vector ETV
attr interpolationmode sample-hold
attr recordingmode vector
attr source channelBusy
vector 3 NetSDN_ML.sdn.port$o[1].channel busy:vector ETV
attr interpolationmode sample-hold
attr recordingmode vector
attr source channelBusy
vector 4 NetSDN_ML.device3.port$o[0].channel busy:vector ETV
attr interpolationmode sample-hold
attr recordingmode vector
attr source channelBusy
vector 5 NetSDN_ML.sdn.port$o[2].channel busy:vector ETV
attr interpolationmode sample-hold
attr recordingmode vector
attr source channelBusy
vector 6 NetSDN_ML.device4.port$o[0].channel busy:vector ETV
attr interpolationmode sample-hold
attr recordingmode vector
attr source channelBusy
vector 7 NetSDN_ML.sdn.port$o[3].channel busy:vector ETV
attr interpolationmode sample-hold
attr recordingmode vector
attr source channelBusy
vector 8 NetSDN_ML.device5.port$o[0].channel busy:vector ETV
attr interpolationmode sample-hold
attr recordingmode vector
attr source channelBusy
vector 9 NetSDN_ML.sdn.port$o[4].channel busy:vector ETV
attr interpolationmode sample-hold
attr recordingmode vector
attr source channelBusy
vector 10 NetSDN_ML.device1.port$o[1].channel busy:vector ETV
attr interpolationmode sample-hold
attr recordingmode vector
attr source channelBusy
vector 11 NetSDN_ML.device2.port$o[1].channel busy:vector ETV
attr interpolationmode sample-hold
attr recordingmode vector
attr source channelBusy
vector 12 NetSDN_ML.device1.port$o[2].channel busy:vector ETV
attr interpolationmode sample-hold
attr recordingmode vector
attr source channelBusy
vector 13 NetSDN_ML.device4.port$o[1].channel busy:vector ETV
attr interpolationmode sample-hold
attr recordingmode vector
attr source channelBusy
vector 14 NetSDN_ML.device2.port$o[2].channel busy:vector ETV
attr interpolationmode sample-hold
attr recordingmode vector
attr source channelBusy
vector 15 NetSDN_ML.device5.port$o[1].channel busy:vector ETV
attr interpolationmode sample-hold
attr recordingmode vector
attr source channelBusy
vector 16 NetSDN_ML.device3.port$o[1].channel busy:vector ETV
attr interpolationmode sample-hold
attr recordingmode vector
attr source channelBusy
vector 17 NetSDN_ML.device4.port$o[2].channel busy:vector ETV
attr interpolationmode sample-hold
attr recordingmode vector
attr source channelBusy
vector 18 NetSDN_ML.device3.port$o[2].channel busy:vector ETV
attr interpolationmode sample-hold
attr recordingmode vector
attr source channelBusy
vector 19 NetSDN_ML.device5.port$o[2].channel busy:vector ETV
attr interpolationmode sample-hold
attr recordingmode vector
attr source channelBusy
vector 20 NetSDN_ML.device4.port$o[3].channel busy:vector ETV
attr interpolationmode sample-hold
attr recordingmode vector
attr source channelBusy
vector 21 NetSDN_ML.device5.port$o[3].channel busy:vector ETV
attr interpolationmode sample-hold
attr recordingmode vector
attr source channelBusy
vector 22 NetSDN_ML.sdn.queue[0] qlen:vector ETV
attr interpolationmode sample-hold
attr recordingmode vector
attr title "queue length"
vector 23 NetSDN_ML.sdn.queue[0] busy:vector ETV
attr interpolationmode sample-hold
attr recordingmode vector
attr title "server busy state"
vector 24 NetSDN_ML.sdn.queue[1] qlen:vector ETV
attr interpolationmode sample-hold
attr recordingmode vector
attr title "queue length"
vector 25 NetSDN_ML.sdn.queue[1] busy:vector ETV
attr interpolationmode sample-hold
attr recordingmode vector
attr title "server busy state"
vector 26 NetSDN_ML.sdn.queue[2] qlen:vector ETV
attr interpolationmode sample-hold
attr recordingmode vector
attr title "queue length"
vector 27 NetSDN_ML.sdn.queue[2] busy:vector ETV
attr interpolationmode sample-hold
attr recordingmode vector
attr title "server busy state"
vector 28 NetSDN_ML.sdn.queue[3] qlen:vector ETV
attr interpolationmode sample-hold
attr recordingmode vector
attr title "queue length"
vector 29 NetSDN_ML.sdn.queue[3] busy:vector ETV
attr interpolationmode sample-hold
attr recordingmode vector
attr title "server busy state"
vector 30 NetSDN_ML.sdn.queue[4] qlen:vector ETV
attr interpolationmode sample-hold
attr recordingmode vector
attr title "queue length"
vector 31 NetSDN_ML.sdn.queue[4] busy:vector ETV
attr interpolationmode sample-hold
attr recordingmode vector
attr title "server busy state"
vector 32 NetSDN_ML.device1.queue[0] qlen:vector ETV
attr interpolationmode sample-hold
attr recordingmode vector
attr title "queue length"
vector 33 NetSDN_ML.device1.queue[0] busy:vector ETV
attr interpolationmode sample-hold
attr recordingmode vector
attr title "server busy state"
vector 34 NetSDN_ML.device1.queue[1] qlen:vector ETV
attr interpolationmode sample-hold
attr recordingmode vector
attr title "queue length"
vector 35 NetSDN_ML.device1.queue[1] busy:vector ETV
attr interpolationmode sample-hold
attr recordingmode vector
attr title "server busy state"
vector 36 NetSDN_ML.device1.queue[2] qlen:vector ETV
attr interpolationmode sample-hold
attr recordingmode vector
attr title "queue length"
vector 37 NetSDN_ML.device1.queue[2] busy:vector ETV
attr interpolationmode sample-hold
attr recordingmode vector
attr title "server busy state"
vector 38 NetSDN_ML.device2.queue[0] qlen:vector ETV
attr interpolationmode sample-hold
attr recordingmode vector
attr title "queue length"
vector 39 NetSDN_ML.device2.queue[0] busy:vector ETV
attr interpolationmode sample-hold
attr recordingmode vector
attr title "server busy state"
vector 40 NetSDN_ML.device2.queue[1] qlen:vector ETV
attr interpolationmode sample-hold
attr recordingmode vector
attr title "queue length"
vector 41 NetSDN_ML.device2.queue[1] busy:vector ETV
attr interpolationmode sample-hold
attr recordingmode vector
attr title "server busy state"
vector 42 NetSDN_ML.device2.queue[2] qlen:vector ETV
attr interpolationmode sample-hold
attr recordingmode vector
attr title "queue length"
vector 43 NetSDN_ML.device2.queue[2] busy:vector ETV
attr interpolationmode sample-hold
attr recordingmode vector
attr title "server busy state"
vector 44 NetSDN_ML.device3.queue[0] qlen:vector ETV
attr interpolationmode sample-hold
attr recordingmode vector
attr title "queue length"
vector 45 NetSDN_ML.device3.queue[0] busy:vector ETV
attr interpolationmode sample-hold
attr recordingmode vector
attr title "server busy state"
vector 46 NetSDN_ML.device3.queue[1] qlen:vector ETV
attr interpolationmode sample-hold
attr recordingmode vector
attr title "queue length"
vector 47 NetSDN_ML.device3.queue[1] busy:vector ETV
attr interpolationmode sample-hold
attr recordingmode vector
attr title "server busy state"
vector 48 NetSDN_ML.device3.queue[2] qlen:vector ETV
attr interpolationmode sample-hold
attr recordingmode vector
attr title "queue length"
vector 49 NetSDN_ML.device3.queue[2] busy:vector ETV
attr interpolationmode sample-hold
attr recordingmode vector
attr title "server busy state"
vector 50 NetSDN_ML.device4.queue[0] qlen:vector ETV
attr interpolationmode sample-hold
attr recordingmode vector
attr title "queue length"
vector 51 NetSDN_ML.device4.queue[0] busy:vector ETV
attr interpolationmode sample-hold
attr recordingmode vector
attr title "server busy state"
vector 52 NetSDN_ML.device4.queue[1] qlen:vector ETV
attr interpolationmode sample-hold
attr recordingmode vector
attr title "queue length"
vector 53 NetSDN_ML.device4.queue[1] busy:vector ETV
attr interpolationmode sample-hold
attr recordingmode vector
attr title "server busy state"
vector 54 NetSDN_ML.device4.queue[2] qlen:vector ETV
attr interpolationmode sample-hold
attr recordingmode vector
attr title "queue length"
vector 55 NetSDN_ML.device4.queue[2] busy:vector ETV
attr interpolationmode sample-hold
attr recordingmode vector
attr title "server busy state"
vector 56 NetSDN_ML.device4.queue[3] qlen:vector ETV
attr interpolationmode sample-hold
attr recordingmode vector
attr title "queue length"
vector 57 NetSDN_ML.device4.queue[3] busy:vector ETV
attr interpolationmode sample-hold
attr recordingmode vector
attr title "server busy state"
vector 58 NetSDN_ML.device5.queue[0] qlen:vector ETV
attr interpolationmode sample-hold
attr recordingmode vector
attr title "queue length"
vector 59 NetSDN_ML.device5.queue[0] busy:vector ETV
attr interpolationmode sample-hold
attr recordingmode vector
attr title "server busy state"
vector 60 NetSDN_ML.device5.queue[1] qlen:vector ETV
attr interpolationmode sample-hold
attr recordingmode vector
attr title "queue length"
vector 61 NetSDN_ML.device5.queue[1] busy:vector ETV
attr interpolationmode sample-hold
attr recordingmode vector
attr title "server busy state"
vector 62 NetSDN_ML.device5.queue[2] qlen:vector ETV
attr interpolationmode sample-hold
attr recordingmode vector
attr title "queue length"
vector 63 NetSDN_ML.device5.queue[2] busy:vector ETV
attr interpolationmode sample-hold
attr recordingmode vector
attr title "server busy state"
vector 64 NetSDN_ML.device5.queue[3] qlen:vector ETV
attr interpolationmode sample-hold
attr recordingmode vector
attr title "queue length"
vector 65 NetSDN_ML.device5.queue[3] busy:vector ETV
attr interpolationmode sample-hold
attr recordingmode vector
attr title "server busy state"
vector 66 NetSDN_ML.device3.queue[1] txBytes:vector ETV
attr interpolationmode none
attr recordingmode vector
attr title "transmitting packet byte length"
attr unit bytes
vector 67 NetSDN_ML.device4.queue[2] rxBytes:vector ETV
attr interpolationmode none
attr recordingmode vector
attr title "received packet byte length"
attr unit bytes
vector 68 NetSDN_ML.device4.queue[1] txBytes:vector ETV
attr interpolationmode none
attr recordingmode vector
attr title "transmitting packet byte length"
attr unit bytes
vector 69 NetSDN_ML.device1.queue[2] rxBytes:vector ETV
attr interpolationmode none
attr recordingmode vector
attr title "received packet byte length"
attr unit bytes
vector 70 NetSDN_ML.device1.app endToEndDelay:vector ETV
attr interpolationmode none
attr recordingmode vector
attr title "end-to-end delay of arrived packets"
attr unit s
vector 71 NetSDN_ML.device1.app hopCount:vector ETV
attr interpolationmode none
attr recordingmode vector
attr title "hop count of arrived packets"
vector 72 NetSDN_ML.device1.app sourceAddress:vector ETV
attr interpolationmode none
attr recordingmode vector
attr title "source address of arrived packets"
vector 73 NetSDN_ML.device5.queue[1] txBytes:vector ETV
attr interpolationmode none
attr recordingmode vector
attr title "transmitting packet byte length"
attr unit bytes
vector 74 NetSDN_ML.device2.queue[2] rxBytes:vector ETV
attr interpolationmode none
attr recordingmode vector
attr title "received packet byte length"
attr unit bytes
vector 75 NetSDN_ML.device2.queue[1] txBytes:vector ETV
attr interpolationmode none
attr recordingmode vector
attr title "transmitting packet byte length"
attr unit bytes
vector 76 NetSDN_ML.device1.queue[1] rxBytes:vector ETV
attr interpolationmode none
attr recordingmode vector
attr title "received packet byte length"
attr unit bytes
vector 77 NetSDN_ML.device1.queue[2] txBytes:vector ETV
attr interpolationmode none
attr recordingmode vector
attr title "transmitting packet byte length"
attr unit bytes
vector 78 NetSDN_ML.device4.queue[1] rxBytes:vector ETV
attr interpolationmode none
attr recordingmode vector
attr title "received packet byte length"
attr unit bytes
vector 79 NetSDN_ML.device4.queue[2] txBytes:vector ETV
attr interpolationmode none
attr recordingmode vector
attr title "transmitting packet byte length"
attr unit bytes
vector 80 NetSDN_ML.device3.queue[1] rxBytes:vector ETV
attr interpolationmode none
attr recordingmode vector
attr title "received packet byte length"
attr unit bytes
vector 81 NetSDN_ML.device3.app endToEndDelay:vector ETV
attr interpolationmode none
attr recordingmode vector
attr title "end-to-end delay of arrived packets"
attr unit s
vector 82 NetSDN_ML.device3.app hopCount:vector ETV
attr interpolationmode none
attr recordingmode vector
attr title "hop count of arrived packets"
vector 83 NetSDN_ML.device3.app sourceAddress:vector ETV
attr interpolationmode none
attr recordingmode vector
attr title "source address of arrived packets"
vector 84 NetSDN_ML.device4.app endToEndDelay:vector ETV
attr interpolationmode none
attr recordingmode vector
attr title "end-to-end delay of arrived packets"
attr unit s
vector 85 NetSDN_ML.device4.app hopCount:vector ETV
attr interpolationmode none
attr recordingmode vector
attr title "hop count of arrived packets"
vector 86 NetSDN_ML.device4.app sourceAddress:vector ETV
attr interpolationmode none
attr recordingmode vector
attr title "source address of arrived packets"
vector 87 NetSDN_ML.device5.queue[2] txBytes:vector ETV
attr interpolationmode none
attr recordingmode vector
attr title "transmitting packet byte length"
attr unit bytes
vector 88 NetSDN_ML.device3.queue[2] rxBytes:vector ETV
attr interpolationmode none
attr recordingmode vector
attr title "received packet byte length"
attr unit bytes
vector 89 NetSDN_ML.sdn.controller topologyUpdated:vector ETV
attr recordingmode vector
attr title "topology update events"
vector 90 NetSDN_ML.device2.queue[2] txBytes:vector ETV
attr interpolationmode none
attr recordingmode vector
attr title "transmitting packet byte length"
attr unit bytes
vector 91 NetSDN_ML.device5.queue[1] rxBytes:vector ETV
attr interpolationmode none
attr recordingmode vector
attr title "received packet byte length"
attr unit bytes
vector 92 NetSDN_ML.device5.queue[3] txBytes:vector ETV
attr interpolationmode none
attr recordingmode vector
attr title "transmitting packet byte length"
attr unit bytes
vector 93 NetSDN_ML.device4.queue[3] rxBytes:vector ETV
attr interpolationmode none
attr recordingmode vector
attr title "received packet byte length"
attr unit bytes
0	0	0	0
0	3621	0	0
1	0	0	0
1	3621	0	0
2	0	0	0
2	3621	0	0
3	0	0	0
3	3621	0	0
4	0	0	0
4	3621	0	0
5	0	0	0
5	3621	0	0
6	0	0	0
6	3621	0	0
7	0	0	0
7	3621	0	0
8	0	0	0
8	3621	0	0
9	0	0	0
9	3621	0	0
10	0	0	0
10	3621	0	0
11	0	0	0
11	23	0	0
11	23	1.289984576286	1
11	59	1.293064394476	0
11	59	2.561058351304	1
11	95	2.564138169494	0
11	95	4.435122256633	1
11	117	4.438202074823	0
11	117	5.692974853329	1
11	143	5.696054671519	0
11	143	5.858789000542	1
11	202	5.861868818732	0
11	202	10.274182143621	1
11	217	10.277261961811	0
11	217	10.586838463204	1
11	259	10.589918281394	0
11	259	13.227704325225	1
11	288	13.230784143415	0
11	288	15.360907222144	1
11	317	15.363987040334	0
11	317	16.379620625637	1
11	363	16.382700443827	0
11	363	18.175262128934	1
11	392	18.178341947124	0
11	392	20.687475511804	1
11	424	20.690555329994	0
11	424	22.526904555851	1
11	441	22.529984374041	0
11	441	23.644617359619	1
11	477	23.647697177809	0
11	477	26.001051308003	1
11	484	26.004131126193	0
11	484	26.556784639134	1
11	547	26.559864457324	0
11	547	29.690569645259	1
11	651	29.693649463449	0
11	651	35.575273852211	1
11	658	35.578353670401	0
11	658	36.063857584726	1
11	671	36.066937402916	0
11	671	37.100901172962	1
11	686	37.103980991152	0
11	686	37.253244085119	1
11	704	37.256323903309	0
11	704	38.31692193297	1
11	717	38.32000175116	0
11	717	39.317406908143	1
11	846	39.320486726333	0
11	846	46.893836841918	1
11	900	46.896916660108	0
11	900	49.539549570064	1
11	911	49.542629388254	0
11	911	49.559965776161	1
11	940	49.563045594351	0
11	940	50.990981131673	1
11	986	50.994060949863	0
11	986	52.881570587865	1
11	1011	52.884650406055	0
11	1011	54.231388332321	1
11	1047	54.234468150511	0
11	1047	55.561306075192	1
11	1089	55.564385893382	0
11	1089	57.436867632784	1
11	1096	57.439947450974	0
11	1096	58.024693591985	1
11	1187	58.027773410175	0
11	1187	65.656855494249	1
11	1222	65.659935312439	0
11	1222	68.301090964116	1
11	1263	68.304170782306	0
11	1263	70.039753393151	1
11	1335	70.042833211341	0
11	1335	73.469025609084	1
11	1388	73.472105427274	0
11	1388	76.463804881554	1
11	1426	76.466884699744	0
11	1426	78.826523148455	1
11	1448	78.829602966645	0
11	1448	80.864193443675	1
11	1480	80.867273261865	0
11	1480	82.814772332553	1
11	1513	82.817852150743	0
11	1513	83.354752400305	1
11	1523	83.357832218495	0
11	1523	84.466141865589	1
11	1558	84.469221683779	0
11	1558	87.066898783203	1
11	1626	87.069978601393	0
11	1626	91.103421715088	1
11	1651	91.106501533278	0
11	1651	91.729235812902	1
11	1685	91.732315631092	0
11	1685	94.002016674261	1
11	1714	94.005096492451	0
11	1714	95.186071841046	1
11	1803	95.189151659236	0
11	1803	98.81164463656	1
11	1826	98.81472445475	0
11	1826	100.206932087309	1
11	1882	100.210011905499	0
11	1882	103.24219982652	1
11	1893	103.24527964471	0
11	1893	104.112207868948	1
11	1939	104.115287687138	0
11	1939	106.986776596747	1
11	1946	106.989856414937	0
11	1946	107.101737028454	1
11	1992	107.104816846644	0
11	1992	109.366313127681	1
11	1999	109.369392945871	0
11	1999	109.935191057157	1
11	2053	109.938270875347	0
11	2053	113.67567580333	1
11	2115	113.67875562152	0
11	2115	116.835995829078	1
11	2138	116.839075647268	0
11	2138	118.858319143765	1
11	2149	118.861398961955	0
11	2149	119.020456665075	1
11	2227	119.023536483265	0
11	2227	123.648518563248	1
11	2296	123.651598381438	0
11	2296	127.404710990721	1
11	2309	127.407790808911	0
11	2309	127.806315665599	1
11	2336	127.809395483789	0
11	2336	129.385867418256	1
11	2362	129.388947236446	0
11	2362	131.384326259018	1
11	2426	131.387406077208	0
11	2426	134.830439095729	1
11	2445	134.833518913919	0
11	2445	135.293691354338	1
11	2477	135.296771172528	0
11	2477	137.376452941447	1
11	2488	137.379532759637	0
11	2488	137.57401056948	1
11	2509	137.57709038767	0
11	2509	138.725996956229	1
11	2541	138.729076774419	0
11	2541	140.618785785511	1
11	2605	140.621865603701	0
11	2605	143.764239465231	1
11	2634	143.767319283421	0
11	2634	145.317068942822	1
11	2652	145.320148761012	0
11	2652	146.723293317361	1
11	2666	146.726373135551	0
11	2666	147.272361952811	1
11	2684	147.275441771001	0
11	2684	148.752318802169	1
11	2702	148.755398620359	0
11	2702	148.947316712234	1
11	2731	148.950396530424	0
11	2731	150.752850226126	1
11	2776	150.755930044316	0
11	2776	153.532437535468	1
11	2794	153.535517353658	0
11	2794	154.746445812284	1
11	2823	154.749525630474	0
11	2823	155.851462136487	1
11	2869	155.854541954677	0
11	2869	158.16498604277	1
11	2886	158.16806586096	0
11	2886	159.120076003829	1
11	2893	159.123155822019	0
11	2893	159.396654049399	1
11	2929	159.399733867589	0
11	2929	161.31317206798	1
11	2976	161.31625188617	0
11	2976	162.782240877273	1
11	2983	162.785320695463	0
11	2983	163.176692318636	1
11	3015	163.179772136826	0
11	3015	165.604546719695	1
11	3059	165.607626537885	0
11	3059	168.338881033471	1
11	3080	168.341960851661	0
11	3080	169.888031133449	1
11	3126	169.891110951639	0
11	3126	172.600583499762	1
11	3182	172.603663317952	0
11	3182	176.21279489342	1
11	3220	176.21587471161	0
11	3220	178.261554504743	1
11	3231	178.264634322933	0
11	3231	178.713123415476	1
11	3253	178.716203233666	0
11	3253	180.276825595645	1
11	3271	180.279905413835	0
11	3271	181.385851474824	1
11	3296	181.388931293014	0
11	3296	182.881221511281	1
11	3303	182.884301329471	0
11	3303	183.031623186076	1
11	3335	183.034703004266	0
11	3335	185.216651293795	1
11	3342	185.219731111985	0
11	3342	185.580990135668	1
11	3377	185.584069953858	0
11	3377	187.169143460224	1
11	3424	187.172223278414	0
11	3424	188.914647375579	1
11	3492	188.917727193769	0
11	3492	192.351972985546	1
11	3534	192.355052803736	0
11	3534	194.770043902564	1
11	3552	194.773123720754	0
11	3552	196.194912622682	1
11	3573	196.197992440872	0
11	3573	197.343290361456	1
11	3580	197.346370179646	0
11	3580	197.53099766001	1
11	3601	197.5340774782	0
11	3601	198.774086773741	1
11	3621	198.777166591931	0
12	0	0	0
12	30	0	0
12	30	1.922958725598	1
12	63	1.926571464715	0
12	63	2.56943182976	1
12	70	2.573044568877	0
12	70	3.367601496633	1
12	99	3.37121423575	0
12	99	4.443495735089	1
12	121	4.447108474206	0
12	121	5.701348331785	1
12	206	5.704961070902	0
12	206	10.282555622077	1
12	224	10.286168361194	0
12	224	10.845097699202	1
12	238	10.848710438319	0
12	238	11.923473277129	1
12	263	11.927086016246	0
12	263	13.236077803681	1
12	292	13.239690542798	0
12	292	15.3692807006	1
12	299	15.372893439717	0
12	299	15.533691597637	1
12	321	15.537304336754	0
12	321	16.387994104093	1
12	349	16.39160684321	0
12	349	17.828039874789	1
12	409	17.831652613906	0
12	409	22.129765193444	1
12	445	22.133377932561	0
12	445	23.652990838075	1
12	488	23.656603577192	0
12	488	26.56515811759	1
12	509	26.568770856707	0
12	509	26.841706638225	1
12	583	26.845319377342	0
12	583	31.718128513545	1
12	675	31.721741252662	0
12	675	37.109274651418	1
12	738	37.112887390535	0
12	738	41.403659730219	1
12	773	41.407272469336	0
12	773	42.841158465949	1
12	817	42.844771205066	0
12	817	45.233845437412	1
12	867	45.237458176529	0
12	867	48.027188017965	1
12	990	48.030800757082	0
12	990	52.889944066321	1
12	997	52.893556805438	0
12	997	52.981512114406	1
12	1015	52.985124853523	0
12	1015	54.239761810777	1
12	1036	54.243374549894	0
12	1036	54.773631521967	1
12	1162	54.777244261084	0
12	1162	63.791658545845	1
12	1226	63.795271284962	0
12	1226	68.309464442572	1
12	1233	68.313077181689	0
12	1233	68.5575820026	1
12	1270	68.561194741717	0
12	1270	70.276124836878	1
12	1310	70.279737575995	0
12	1310	72.343056189363	1
12	1430	72.34666892848	0
12	1430	78.834896626911	1
12	1452	78.838509366028	0
12	1452	80.872566922131	1
12	1459	80.876179661248	0
12	1459	81.026930087713	1
12	1484	81.03054282683	0
12	1484	82.823145811009	1
12	1491	82.826758550126	0
12	1491	83.13978894055	1
12	1530	83.143401679667	0
12	1530	84.474515344045	1
12	1545	84.478128083162	0
12	1545	86.05260039447	1
12	1562	86.056213133587	0
12	1562	87.075272261659	1
12	1576	87.078885000776	0
12	1576	88.212994609961	1
12	1615	88.216607349078	0
12	1615	90.219849463088	1
12	1721	90.223462202205	0
12	1721	95.789738113527	1
12	1750	95.793350852644	0
12	1750	96.854668705725	1
12	1789	96.858281444842	0
12	1789	98.085637291429	1
12	1807	98.089250030546	0
12	1807	98.820018115016	1
12	1847	98.823630854133	0
12	1847	101.064456840978	1
12	1871	101.068069580095	0
12	1871	102.920125606936	1
12	1915	102.923738346053	0
12	1915	104.715192603414	1
12	1950	104.718805342531	0
12	1950	107.11011050691	1
12	1964	107.113723246027	0
12	1964	107.520117451904	1
12	2017	107.523730191021	0
12	2017	111.859676111491	1
12	2178	111.863288850608	0
12	2178	120.865837602411	1
12	2206	120.869450341528	0
12	2206	122.373122647405	1
12	2231	122.376735386522	0
12	2231	123.656892041704	1
12	2249	123.660504780821	0
12	2249	124.617891492322	1
12	2340	124.621504231439	0
12	2340	129.394240896712	1
12	2369	129.397853635829	0
12	2369	132.086547104176	1
12	2449	132.090159843293	0
12	2449	135.302064832794	1
12	2513	135.305677571911	0
12	2513	138.734370434685	1
12	2545	138.737983173802	0
12	2545	140.627159263967	1
12	2552	140.630772003084	0
12	2552	141.13959405711	1
12	2569	141.143206796227	0
12	2569	142.261751134881	1
12	2615	142.265363873998	0
12	2615	144.692166798284	1
12	2659	144.695779537401	0
12	2659	147.052864140833	1
12	2670	147.05647687995	0
12	2670	147.280735431267	1
12	2706	147.284348170384	0
12	2706	148.95569019069	1
12	2716	148.959302929807	0
12	2716	149.909301557115	1
12	2741	149.912914296232	0
12	2741	151.80558721768	1
12	2769	151.809199956797	0
12	2769	153.476583567451	1
12	2780	153.480196306568	0
12	2780	153.540811013924	1
12	2798	153.544423753041	0
12	2798	154.75481929074	1
12	2815	154.758432029857	0
12	2815	154.835403703156	1
12	2827	154.839016442273	0
12	2827	155.859835614943	1
12	2897	155.86344835406	0
12	2897	159.405027527855	1
12	2908	159.408640266972	0
12	2908	160.335259202405	1
12	2936	160.338871941522	0
12	2936	161.58294804022	1
12	2961	161.586560779337	0
12	2961	162.72303241771	1
12	2990	162.726645156827	0
12	2990	163.943986638918	1
12	3019	163.947599378035	0
12	3019	165.612920198151	1
12	3026	165.616532937268	0
12	3026	165.743306678257	1
12	3063	165.746919417374	0
12	3063	168.347254511927	1
12	3199	168.350867251044	0
12	3199	177.446997966621	1
12	3238	177.450610705738	0
12	3238	178.787197247617	1
12	3278	178.790809986734	0
12	3278	181.648834687661	1
12	3313	181.652447426778	0
12	3313	183.799259621653	1
12	3367	183.80287236077	0
12	3367	186.383018752563	1
12	3381	186.38663149168	0
12	3381	187.17751693868	1
12	3449	187.181129677797	0
12	3449	189.867044642105	1
12	3502	189.870657381222	0
12	3502	192.839185860011	1
12	3538	192.842798599128	0
12	3538	194.77841738102	1
12	3611	194.782030120137	0
12	3611	199.293899060696	1
12	3621	199.297511799813	0
13	0	0	0
13	12	0	0
13	12	1.240558543702	1
13	41	1.242480486158	0
13	41	2.279842033982	1
13	52	2.281763976438	0
13	52	2.510994890233	1
13	132	2.512916832689	0
13	132	5.752714041614	1
13	310	5.75463598407	0
13	310	15.889791083981	1
13	335	15.891713026437	0
13	335	17.148832090199	1
13	370	17.150754032655	0
13	370	18.888448281679	1
13	381	18.890370224135	0
13	381	19.82423634454	1
13	434	19.826158286996	0
13	434	22.856592368334	1
13	569	22.85851431079	0
13	569	31.482031503686	1
13	640	31.483953446142	0
13	640	35.536709631328	1
13	745	35.538631573784	0
13	745	42.039079477546	1
13	784	42.041001420002	0
13	784	43.6087510297	1
13	839	43.610672972156	0
13	839	45.844066868063	1
13	860	45.845988810519	0
13	860	47.506532903297	1
13	885	47.508454845753	0
13	885	48.170223275192	1
13	918	48.172145217648	0
13	918	49.683167138139	1
13	954	49.685089080595	0
13	954	51.301827006966	1
13	979	51.303748949422	0
13	979	52.449439403137	1
13	1025	52.451361345593	0
13	1025	54.484197625426	1
13	1078	54.486119567882	0
13	1078	57.254028698422	1
13	1116	57.255950640878	0
13	1116	59.873906766532	1
13	1204	59.875828708988	0
13	1204	67.141730682927	1
13	1215	67.143652625383	0
13	1215	67.262173251241	1
13	1244	67.264095193697	0
13	1244	68.949384250205	1
13	1251	68.951306192661	0
13	1251	69.866113711151	1
13	1281	69.868035653607	0
13	1281	70.763866585672	1
13	1303	70.765788528128	0
13	1303	71.922910759218	1
13	1328	71.924832701674	0
13	1328	72.718539576514	1
13	1346	72.72046151897	0
13	1346	73.787206854664	1
13	1416	73.78912879712	0
13	1416	78.340167026494	1
13	1502	78.34208896895	0
13	1502	83.209041119555	1
13	1696	83.210963062011	0
13	1696	94.356772735707	1
13	1736	94.358694678163	0
13	1736	95.822261000044	1
13	1957	95.8241829425	0
13	1957	107.271300987342	1
13	2046	107.273222929798	0
13	2046	113.410789479503	1
13	2064	113.412711421959	0
13	2064	114.11981625016	1
13	2093	114.121738192616	0
13	2093	115.424525655798	1
13	2164	115.426447598254	0
13	2164	120.271003293797	1
13	2242	120.272925236253	0
13	2242	123.70374300982	1
13	2405	123.705664952276	0
13	2405	132.89395398832	1
13	2415	132.895875930776	0
13	2415	133.935558196623	1
13	2438	133.937480139079	0
13	2438	135.140543334178	1
13	2470	135.142465276634	0
13	2470	136.899255483869	1
13	2695	136.901177426325	0
13	2695	148.887341160786	1
13	2762	148.889263103242	0
13	2762	152.788561867084	1
13	2862	152.79048380954	0
13	2862	157.610509893384	1
13	2947	157.61243183584	0
13	2947	161.727121046271	1
13	3102	161.729042988727	0
13	3102	170.39935597078	1
13	3206	170.401277913236	0
13	3206	177.708969732746	1
13	3260	177.710891675202	0
13	3260	180.472762734163	1
13	3285	180.474684676619	0
13	3285	182.324654636438	1
13	3320	182.326576578894	0
13	3320	184.24166097585	1
13	3360	184.243582918306	0
13	3360	186.320920565621	1
13	3413	186.322842508077	0