version 3
run NetSDN_ML_HighLoad-0-20251116-21:56:02-7632
attr configname NetSDN_ML_HighLoad
attr datetime 20251116-21:56:02
attr datetimef 20251116-215602
attr experiment NetSDN_ML_HighLoad
attr inifile omnetpp_ml.ini
attr iterationvars ""
attr iterationvarsd ""
attr iterationvarsf ""
attr measurement ""
attr network modelingproject4sdn.simulations.NetSDN_ML
attr processid 7632
attr repetition 0
attr replication #0
attr resultdir results
attr runnumber 0
attr seedset 0
config extends NetSDN_ML_Inference
config description "High load scenario with ML routing"
config **.device*.app.sendIaTime "uniform(0.5s, 1.5s)"
config **.device*.app.destAddresses "\"1 2 3 4 5\""
config extends NetSDN_ML
config description "Inference phase - use trained ML model"
config sim-time-limit 200s
config **.sdn.controller.enableMLRouting true
config **.sdn.controller.trainingThreshold 10
config **.device*.app.sendIaTime "uniform(2s, 5s)"
config network modelingproject4sdn.simulations.NetSDN_ML
config description "ML-Enhanced SDN Routing"
config **.sdn.controller.discoveryInterval 5s
config **.sdn.controller.datasetFile "\"sdn_dataset.csv\""
config **.sdn.controller.enableMLRouting false
config **.sdn.controller.trainingThreshold 50
config **.device*.appType "\"App\""
config **.device*.app.destAddresses "\"1 3 4\""
config **.device*.app.sendIaTime "uniform(2s, 5s)"
config **.device*.app.packetLength "2048 bytes"
config *.device*.routing.sdnControllerAddress "\"sdn.controller\""
config *.device*.routing.discoveryInterval 10s
config *.device*.routing.sendDiscovery true
config **.frameCapacity 100
config **.useCutThroughSwitching false
config **.result-recording-modes all
config sim-time-limit 300s
config **.vector-recording true
config **.scalar-recording true

vector 0 NetSDN_ML.device1.port$o[0].channel busy:vector ETV
attr interpolationmode sample-hold
attr recordingmode vector
attr source channelBusy
vector 1 NetSDN_ML.sdn.port$o[0].channel busy:vector ETV
attr interpolationmode sample-hold
attr recordingmode vector
attr source channelBusy
vector 2 NetSDN_ML.device2.port$o[0].channel busy:vector ETV
attr interpolationmode sample-hold
attr recordingmode vector
attr source channelBusy
vector 3 NetSDN_ML.sdn.port$o[1].channel busy:vector ETV
attr interpolationmode sample-hold
attr recordingmode vector
attr source channelBusy
vector 4 NetSDN_ML.device3.port$o[0].channel busy:vector ETV
attr interpolationmode sample-hold
attr recordingmode vector
attr source channelBusy
vector 5 NetSDN_ML.sdn.port$o[2].channel busy:vector ETV
attr interpolationmode sample-hold
attr recordingmode vector
attr source channelBusy
vector 6 NetSDN_ML.device4.port$o[0].channel busy:vector ETV
attr interpolationmode sample-hold
attr recordingmode vector
attr source channelBusy
vector 7 NetSDN_ML.sdn.port$o[3].channel busy:vector ETV
attr interpolationmode sample-hold
attr recordingmode vector
attr source channelBusy
vector 8 NetSDN_ML.device5.port$o[0].channel busy:vector ETV
attr interpolationmode sample-hold
attr recordingmode vector
attr source channelBusy
vector 9 NetSDN_ML.sdn.port$o[4].channel busy:vector ETV
attr interpolationmode sample-hold
attr recordingmode vector
attr source channelBusy
vector 10 NetSDN_ML.device1.port$o[1].channel busy:vector ETV
attr interpolationmode sample-hold
attr recordingmode vector
attr source channelBusy
vector 11 NetSDN_ML.device2.port$o[1].channel busy:vector ETV
attr interpolationmode sample-hold
attr recordingmode vector
attr source channelBusy
vector 12 NetSDN_ML.device1.port$o[2].channel busy:vector ETV
attr interpolationmode sample-hold
attr recordingmode vector
attr source channelBusy
vector 13 NetSDN_ML.device4.port$o[1].channel busy:vector ETV
attr interpolationmode sample-hold
attr recordingmode vector
attr source channelBusy
vector 14 NetSDN_ML.device2.port$o[2].channel busy:vector ETV
attr interpolationmode sample-hold
attr recordingmode vector
attr source channelBusy
vector 15 NetSDN_ML.device5.port$o[1].channel busy:vector ETV
attr interpolationmode sample-hold
attr recordingmode vector
attr source channelBusy
vector 16 NetSDN_ML.device3.port$o[1].channel busy:vector ETV
attr interpolationmode sample-hold
attr recordingmode vector
attr source channelBusy
vector 17 NetSDN_ML.device4.port$o[2].channel busy:vector ETV
attr interpolationmode sample-hold
attr recordingmode vector
attr source channelBusy
vector 18 NetSDN_ML.device3.port$o[2].channel busy:vector ETV
attr interpolationmode sample-hold
attr recordingmode vector
attr source channelBusy
vector 19 NetSDN_ML.device5.port$o[2].channel busy:vector ETV
attr interpolationmode sample-hold
attr recordingmode vector
attr source channelBusy
vector 20 NetSDN_ML.device4.port$o[3].channel busy:vector ETV
attr interpolationmode sample-hold
attr recordingmode vector
attr source channelBusy
vector 21 NetSDN_ML.device5.port$o[3].channel busy:vector ETV
attr interpolationmode sample-hold
attr recordingmode vector
attr source channelBusy
vector 22 NetSDN_ML.sdn.queue[0] qlen:vector ETV
attr interpolationmode sample-hold
attr recordingmode vector
attr title "queue length"
vector 23 NetSDN_ML.sdn.queue[0] busy:vector ETV
attr interpolationmode sample-hold
attr recordingmode vector
attr title "server busy state"
vector 24 NetSDN_ML.sdn.queue[1] qlen:vector ETV
attr interpolationmode sample-hold
attr recordingmode vector
attr title "queue length"
vector 25 NetSDN_ML.sdn.queue[1] busy:vector ETV
attr interpolationmode sample-hold
attr recordingmode vector
attr title "server busy state"
vector 26 NetSDN_ML.sdn.queue[2] qlen:vector ETV
attr interpolationmode sample-hold
attr recordingmode vector
attr title "queue length"
vector 27 NetSDN_ML.sdn.queue[2] busy:vector ETV
attr interpolationmode sample-hold
attr recordingmode vector
attr title "server busy state"
vector 28 NetSDN_ML.sdn.queue[3] qlen:vector ETV
attr interpolationmode sample-hold
attr recordingmode vector
attr title "queue length"
vector 29 NetSDN_ML.sdn.queue[3] busy:vector ETV
attr interpolationmode sample-hold
attr recordingmode vector
attr title "server busy state"
vector 30 NetSDN_ML.sdn.queue[4] qlen:vector ETV
attr interpolationmode sample-hold
attr recordingmode vector
attr title "queue length"
vector 31 NetSDN_ML.sdn.queue[4] busy:vector ETV
attr interpolationmode sample-hold
attr recordingmode vector
attr title "server busy state"
vector 32 NetSDN_ML.device1.queue[0] qlen:vector ETV
attr interpolationmode sample-hold
attr recordingmode vector
attr title "queue length"
vector 33 NetSDN_ML.device1.queue[0] busy:vector ETV
attr interpolationmode sample-hold
attr recordingmode vector
attr title "server busy state"
vector 34 NetSDN_ML.device1.queue[1] qlen:vector ETV
attr interpolationmode sample-hold
attr recordingmode vector
attr title "queue length"
vector 35 NetSDN_ML.device1.queue[1] busy:vector ETV
attr interpolationmode sample-hold
attr recordingmode vector
attr title "server busy state"
vector 36 NetSDN_ML.device1.queue[2] qlen:vector ETV
attr interpolationmode sample-hold
attr recordingmode vector
attr title "queue length"
vector 37 NetSDN_ML.device1.queue[2] busy:vector ETV
attr interpolationmode sample-hold
attr recordingmode vector
attr title "server busy state"
vector 38 NetSDN_ML.device2.queue[0] qlen:vector ETV
attr interpolationmode sample-hold
attr recordingmode vector
attr title "queue length"
vector 39 NetSDN_ML.device2.queue[0] busy:vector ETV
attr interpolationmode sample-hold
attr recordingmode vector
attr title "server busy state"
vector 40 NetSDN_ML.device2.queue[1] qlen:vector ETV
attr interpolationmode sample-hold
attr recordingmode vector
attr title "queue length"
vector 41 NetSDN_ML.device2.queue[1] busy:vector ETV
attr interpolationmode sample-hold
attr recordingmode vector
attr title "server busy state"
vector 42 NetSDN_ML.device2.queue[2] qlen:vector ETV
attr interpolationmode sample-hold
attr recordingmode vector
attr title "queue length"
vector 43 NetSDN_ML.device2.queue[2] busy:vector ETV
attr interpolationmode sample-hold
attr recordingmode vector
attr title "server busy state"
vector 44 NetSDN_ML.device3.queue[0] qlen:vector ETV
attr interpolationmode sample-hold
attr recordingmode vector
attr title "queue length"
vector 45 NetSDN_ML.device3.queue[0] busy:vector ETV
attr interpolationmode sample-hold
attr recordingmode vector
attr title "server busy state"
vector 46 NetSDN_ML.device3.queue[1] qlen:vector ETV
attr interpolationmode sample-hold
attr recordingmode vector
attr title "queue length"
vector 47 NetSDN_ML.device3.queue[1] busy:vector ETV
attr interpolationmode sample-hold
attr recordingmode vector
attr title "server busy state"
vector 48 NetSDN_ML.device3.queue[2] qlen:vector ETV
attr interpolationmode sample-hold
attr recordingmode vector
attr title "queue length"
vector 49 NetSDN_ML.device3.queue[2] busy:vector ETV
attr interpolationmode sample-hold
attr recordingmode vector
attr title "server busy state"
vector 50 NetSDN_ML.device4.queue[0] qlen:vector ETV
attr interpolationmode sample-hold
attr recordingmode vector
attr title "queue length"
vector 51 NetSDN_ML.device4.queue[0] busy:vector ETV
attr interpolationmode sample-hold
attr recordingmode vector
attr title "server busy state"
vector 52 NetSDN_ML.device4.queue[1] qlen:vector ETV
attr interpolationmode sample-hold
attr recordingmode vector
attr title "queue length"
vector 53 NetSDN_ML.device4.queue[1] busy:vector ETV
attr interpolationmode sample-hold
attr recordingmode vector
attr title "server busy state"
vector 54 NetSDN_ML.device4.queue[2] qlen:vector ETV
attr interpolationmode sample-hold
attr recordingmode vector
attr title "queue length"
vector 55 NetSDN_ML.device4.queue[2] busy:vector ETV
attr interpolationmode sample-hold
attr recordingmode vector
attr title "server busy state"
vector 56 NetSDN_ML.device4.queue[3] qlen:vector ETV
attr interpolationmode sample-hold
attr recordingmode vector
attr title "queue length"
vector 57 NetSDN_ML.device4.queue[3] busy:vector ETV
attr interpolationmode sample-hold
attr recordingmode vector
attr title "server busy state"
vector 58 NetSDN_ML.device5.queue[0] qlen:vector ETV
attr interpolationmode sample-hold
attr recordingmode vector
attr title "queue length"
vector 59 NetSDN_ML.device5.queue[0] busy:vector ETV
attr interpolationmode sample-hold
attr recordingmode vector
attr title "server busy state"
vector 60 NetSDN_ML.device5.queue[1] qlen:vector ETV
attr interpolationmode sample-hold
attr recordingmode vector
attr title "queue length"
vector 61 NetSDN_ML.device5.queue[1] busy:vector ETV
attr interpolationmode sample-hold
attr recordingmode vector
attr title "server busy state"
vector 62 NetSDN_ML.device5.queue[2] qlen:vector ETV
attr interpolationmode sample-hold
attr recordingmode vector
attr title "queue length"
vector 63 NetSDN_ML.device5.queue[2] busy:vector ETV
attr interpolationmode sample-hold
attr recordingmode vector
attr title "server busy state"
vector 64 NetSDN_ML.device5.queue[3] qlen:vector ETV
attr interpolationmode sample-hold
attr recordingmode vector
attr title "queue length"
vector 65 NetSDN_ML.device5.queue[3] busy:vector ETV
attr interpolationmode sample-hold
attr recordingmode vector
attr title "server busy state"
vector 66 NetSDN_ML.device3.queue[1] txBytes:vector ETV
attr interpolationmode none
attr recordingmode vector
attr title "transmitting packet byte length"
attr unit bytes
vector 67 NetSDN_ML.device4.queue[2] rxBytes:vector ETV
attr interpolationmode none
attr recordingmode vector
attr title "received packet byte length"
attr unit bytes
vector 68 NetSDN_ML.device4.queue[1] txBytes:vector ETV
attr interpolationmode none
attr recordingmode vector
attr title "transmitting packet byte length"
attr unit bytes
vector 69 NetSDN_ML.device1.queue[2] rxBytes:vector ETV
attr interpolationmode none
attr recordingmode vector
attr title "received packet byte length"
attr unit bytes
vector 70 NetSDN_ML.device1.app endToEndDelay:vector ETV
attr interpolationmode none
attr recordingmode vector
attr title "end-to-end delay of arrived packets"
attr unit s
vector 71 NetSDN_ML.device1.app hopCount:vector ETV
attr interpolationmode none
attr recordingmode vector
attr title "hop count of arrived packets"
vector 72 NetSDN_ML.device1.app sourceAddress:vector ETV
attr interpolationmode none
attr recordingmode vector
attr title "source address of arrived packets"
vector 73 NetSDN_ML.device5.routing drop:vector ETV
attr interpolationmode none
attr recordingmode vector
attr title "dropped packet byte length"
attr unit bytes
vector 74 NetSDN_ML.device1.queue[2] txBytes:vector ETV
attr interpolationmode none
attr recordingmode vector
attr title "transmitting packet byte length"
attr unit bytes
vector 75 NetSDN_ML.device4.queue[1] rxBytes:vector ETV
attr interpolationmode none
attr recordingmode vector
attr title "received packet byte length"
attr unit bytes
vector 76 NetSDN_ML.device4.app endToEndDelay:vector ETV
attr interpolationmode none
attr recordingmode vector
attr title "end-to-end delay of arrived packets"
attr unit s
vector 77 NetSDN_ML.device4.app hopCount:vector ETV
attr interpolationmode none
attr recordingmode vector
attr title "hop count of arrived packets"
vector 78 NetSDN_ML.device4.app sourceAddress:vector ETV
attr interpolationmode none
attr recordingmode vector
attr title "source address of arrived packets"
vector 79 NetSDN_ML.sdn.controller topologyUpdated:vector ETV
attr recordingmode vector
attr title "topology update events"
vector 80 NetSDN_ML.device4.queue[3] txBytes:vector ETV
attr interpolationmode none
attr recordingmode vector
attr title "transmitting packet byte length"
attr unit bytes
vector 81 NetSDN_ML.device5.queue[3] rxBytes:vector ETV
attr interpolationmode none
attr recordingmode vector
attr title "received packet byte length"
attr unit bytes
vector 82 NetSDN_ML.device5.app endToEndDelay:vector ETV
attr interpolationmode none
attr recordingmode vector
attr title "end-to-end delay of arrived packets"
attr unit s
vector 83 NetSDN_ML.device5.app hopCount:vector ETV
attr interpolationmode none
attr recordingmode vector
attr title "hop count of arrived packets"
vector 84 NetSDN_ML.device5.app sourceAddress:vector ETV
attr interpolationmode none
attr recordingmode vector
attr title "source address of arrived packets"
vector 85 NetSDN_ML.device2.queue[1] txBytes:vector ETV
attr interpolationmode none
attr recordingmode vector
attr title "transmitting packet byte length"
attr unit bytes
vector 86 NetSDN_ML.device1.queue[1] rxBytes:vector ETV
attr interpolationmode none
attr recordingmode vector
attr title "received packet byte length"
attr unit bytes
vector 87 NetSDN_ML.device5.queue[1] txBytes:vector ETV
attr interpolationmode none
attr recordingmode vector
attr title "transmitting packet byte length"
attr unit bytes
vector 88 NetSDN_ML.device2.queue[2] rxBytes:vector ETV
attr interpolationmode none
attr recordingmode vector
attr title "received packet byte length"
attr unit bytes
vector 89 NetSDN_ML.device2.app endToEndDelay:vector ETV
attr interpolationmode none
attr recordingmode vector
attr title "end-to-end delay of arrived packets"
attr unit s
vector 90 NetSDN_ML.device2.app hopCount:vector ETV
attr interpolationmode none
attr recordingmode vector
attr title "hop count of arrived packets"
vector 91 NetSDN_ML.device2.app sourceAddress:vector ETV
attr interpolationmode none
attr recordingmode vector
attr title "source address of arrived packets"
vector 92 NetSDN_ML.device1.queue[1] txBytes:vector ETV
attr interpolationmode none
attr recordingmode vector
attr title "transmitting packet byte length"
attr unit bytes
vector 93 NetSDN_ML.device2.queue[1] rxBytes:vector ETV
attr interpolationmode none
attr recordingmode vector
attr title "received packet byte length"
attr unit bytes
vector 94 NetSDN_ML.device2.queue[2] txBytes:vector ETV
attr interpolationmode none
attr recordingmode vector
attr title "transmitting packet byte length"
attr unit bytes
vector 95 NetSDN_ML.device5.queue[1] rxBytes:vector ETV
attr interpolationmode none
attr recordingmode vector
attr title "received packet byte length"
attr unit bytes
vector 96 NetSDN_ML.device3.queue[2] txBytes:vector ETV
attr interpolationmode none
attr recordingmode vector
attr title "transmitting packet byte length"
attr unit bytes
vector 97 NetSDN_ML.device5.queue[2] rxBytes:vector ETV
attr interpolationmode none
attr recordingmode vector
attr title "received packet byte length"
attr unit bytes
vector 98 NetSDN_ML.device4.routing drop:vector ETV
attr interpolationmode none
attr recordingmode vector
attr title "dropped packet byte length"
attr unit bytes
vector 99 NetSDN_ML.device3.routing drop:vector ETV
attr interpolationmode none
attr recordingmode vector
attr title "dropped packet byte length"
attr unit bytes
vector 100 NetSDN_ML.device5.queue[2] txBytes:vector ETV
attr interpolationmode none
attr recordingmode vector
attr title "transmitting packet byte length"
attr unit bytes
vector 101 NetSDN_ML.device3.queue[2] rxBytes:vector ETV
attr interpolationmode none
attr recordingmode vector
attr title "received packet byte length"
attr unit bytes
vector 102 NetSDN_ML.device3.app endToEndDelay:vector ETV
attr interpolationmode none
attr recordingmode vector
attr title "end-to-end delay of arrived packets"
attr unit s
vector 103 NetSDN_ML.device3.app hopCount:vector ETV
attr interpolationmode none
attr recordingmode vector
attr title "hop count of arrived packets"
vector 104 NetSDN_ML.device3.app sourceAddress:vector ETV
attr interpolationmode none
attr recordingmode vector
attr title "source address of arrived packets"
vector 105 NetSDN_ML.device4.queue[2] txBytes:vector ETV
attr interpolationmode none
attr recordingmode vector
attr title "transmitting packet byte length"
attr unit bytes
vector 106 NetSDN_ML.device3.queue[1] rxBytes:vector ETV
attr interpolationmode none
attr recordingmode vector
attr title "received packet byte length"
attr unit bytes
vector 107 NetSDN_ML.device5.queue[3] txBytes:vector ETV
attr interpolationmode none
attr recordingmode vector
attr title "transmitting packet byte length"
attr unit bytes
vector 108 NetSDN_ML.device4.queue[3] rxBytes:vector ETV
attr interpolationmode none
attr recordingmode vector
attr title "received packet byte length"
attr unit bytes
vector 109 NetSDN_ML.device1.routing drop:vector ETV
attr interpolationmode none
attr recordingmode vector
attr title "dropped packet byte length"
attr unit bytes
vector 110 NetSDN_ML.device2.routing drop:vector ETV
attr interpolationmode none
attr recordingmode vector
attr title "dropped packet byte length"
attr unit bytes
0	0	0	0
0	7424	0	0
1	0	0	0
1	7424	0	0
2	0	0	0
2	7424	0	0
3	0	0	0
3	7424	0	0
4	0	0	0
4	7424	0	0
5	0	0	0
5	7424	0	0
6	0	0	0
6	7424	0	0
7	0	0	0
7	7424	0	0
8	0	0	0
8	7424	0	0
9	0	0	0
9	7424	0	0
10	0	0	0
10	68	0	0
10	68	1.917629698757	1
10	93	1.919601413475	0
10	93	2.45605512429	1
10	138	2.458026839008	0
10	138	3.951354689896	1
10	225	3.953326404614	0
10	225	6.215944173811	1
10	348	6.217915888529	0
10	348	9.450655503497	1
10	366	9.452627218215	0
10	366	10.224118781975	1
10	500	10.226090496693	0
10	500	13.805170082786	1
10	536	13.807141797504	0
10	536	14.606263614959	1
10	579	14.608235329677	0
10	579	15.445667430992	1
10	614	15.44763914571	0
10	614	16.11036158749	1
10	625	16.112333302208	0
10	625	16.294829656203	1
10	683	16.296801370921	0
10	683	17.941636787094	1
10	777	17.943608501812	0
10	777	20.458422258963	1
10	933	20.460393973681	0
10	933	24.926040978468	1
10	940	24.928012693186	0
10	940	24.937262286665	1
10	977	24.939234001383	0
10	977	26.032516440674	1
10	984	26.034488155392	0
10	984	26.398832444334	1
10	1009	26.400804159052	0
10	1009	26.912069301121	1
10	1158	26.914041015839	0
10	1158	30.814892007038	1
10	1243	30.816863721756	0
10	1243	32.416515344521	1
10	1270	32.418487059239	0
10	1270	33.318055296381	1
10	1277	33.320027011099	0
10	1277	33.407333961222	1
10	1313	33.40930567594	0
10	1313	33.853417732584	1
10	1539	33.855389447302	0
10	1539	39.591852935264	1
10	1638	39.593824649982	0
10	1638	42.524372970518	1
10	1645	42.526344685236	0
10	1645	42.543393400032	1
10	1659	42.54536511475	0
10	1659	43.164453277131	1
10	1705	43.166424991849	0
10	1705	44.153962599113	1
10	1786	44.155934313831	0
10	1786	46.544987082248	1
10	1816	46.546958796966	0
10	1816	47.189638890857	1
10	1930	47.191610605575	0
10	1930	50.000923469196	1
10	1947	50.002895183914	0
10	1947	50.511260669512	1
10	2034	50.51323238423	0
10	2034	53.467528203966	1
10	2070	53.469499918684	0
10	2070	54.409563834311	1
10	2141	54.411535549029	0
10	2141	56.471296622416	1
10	2327	56.473268337134	0
10	2327	60.729619104646	1
10	2494	60.731590819364	0
10	2494	64.77853322285	1
10	2569	64.780504937568	0
10	2569	67.198118256938	1
10	2610	67.200089971656	0
10	2610	68.40268753073	1
10	2679	68.404659245448	0
10	2679	70.535281137562	1
10	2825	70.53725285228	0
10	2825	74.076098268851	1
10	2865	74.078069983569	0
10	2865	75.034601438557	1
10	2879	75.036573153275	0
10	2879	75.775639721957	1
10	2885	75.777611436675	0
10	2885	75.77949091792	1
10	3071	75.781462632638	0
10	3071	80.973676922031	1
10	3130	80.975648636749	0
10	3130	82.632977393057	1
10	3144	82.634949107775	0
10	3144	82.778721265726	1
10	3214	82.780692980444	0
10	3214	85.401724769267	1
10	3314	85.403696483985	0
10	3314	88.317188436397	1
10	3459	88.319160151115	0
10	3459	92.291235102805	1
10	3488	92.293206817523	0
10	3488	93.24337088137	1
10	3508	93.245342596088	0
10	3508	93.654711326117	1
10	3613	93.656683040835	0
10	3613	96.439638192366	1
10	3660	96.441609907084	0
10	3660	97.327973127595	1
10	3737	97.329944842313	0
10	3737	98.739733569623	1
10	3769	98.741705284341	0
10	3769	99.547038001238	1
10	3783	99.549009715956	0
10	3783	100.057101695562	1
10	3845	100.05907341028	0
10	3845	101.969332116652	1
10	3879	101.97130383137	0
10	3879	102.598687882298	1
10	3917	102.600659597016	0
10	3917	103.978544566776	1
10	3949	103.980516281494	0
10	3949	104.823682339858	1
10	4075	104.825654054576	0
10	4075	108.728895067932	1
10	4189	108.73086678265	0
10	4189	111.533381357855	1
10	4208	111.535353072573	0
10	4208	112.053964024639	1
10	4255	112.055935739357	0
10	4255	112.966397573935	1
10	4323	112.968369288653	0
10	4323	114.978687294988	1
10	4408	114.980659009706	0
10	4408	117.716880709232	1
10	4434	117.71885242395	0
10	4434	118.415871646787	1
10	4609	118.417843361505	0
10	4609	122.616273363816	1
10	4659	122.618245078534	0
10	4659	124.455895687985	1
10	4670	124.457867402703	0
10	4670	124.989724627693	1
10	4747	124.991696342411	0
10	4747	127.409915527791	1
10	5004	127.411887242509	0
10	5004	134.491867088009	1
10	5083	134.493838802727	0
10	5083	136.50314136431	1
10	5207	136.505113079028	0
10	5207	140.944161212067	1
10	5258	140.946132926785	0
10	5258	142.33686125262	1
10	5313	142.338832967338	0
10	5313	144.451142982807	1
10	5326	144.453114697525	0
10	5326	144.841855981688	1
10	5436	144.843827696406	0
10	5436	147.865369474976	1
10	5508	147.867341189694	0
10	5508	149.476947631057	1
10	5557	149.478919345775	0
10	5557	150.336400785785	1
10	5564	150.338372500503	0
10	5564	150.689632230899	1
10	5657	150.691603945617	0
10	5657	153.24210225022	1
10	5707	153.244073964938	0
10	5707	154.54196768533	1
10	5733	154.543939400048	0
10	5733	155.390632879916	1
10	5907	155.392604594634	0
10	5907	159.879683126459	1
10	5951	159.881654841177	0
10	5951	161.093400891401	1
10	6010	161.095372606119	0
10	6010	162.931918155166	1
10	6027	162.933889869884	0
10	6027	163.280580060624	1
10	6066	163.282551775342	0
10	6066	164.370011563177	1
10	6197	164.371983277895	0
10	6197	167.858632258601	1
10	6268	167.860603973319	0
10	6268	169.755911908877	1
10	6327	169.757883623595	0
10	6327	171.027736207466	1
10	6371	171.029707922184	0
10	6371	172.256210173709	1
10	6420	172.258181888427	0
10	6420	173.575915758261	1
10	6447	173.577887472979	0
10	6447	174.244891813952	1
10	6475	174.24686352867	0
10	6475	174.784908887693	1
10	6502	174.786880602411	0
10	6502	175.554640080775	1
10	6519	175.556611795493	0
10	6519	175.825368898988	1
10	6547	175.827340613706	0
10	6547	176.569249391085	1
10	6565	176.571221105803	0
10	6565	177.099130528974	1
10	6614	177.101102243692	0
10	6614	178.299763869722	1
10	6725	178.30173558444	0
10	6725	181.402384551078	1
10	6729	181.404356265796	0
10	6729	181.407794374968	1
10	6847	181.409766089686	0
10	6847	185.359184075841	1
10	7058	185.361155790559	0
10	7058	189.822722262773	1
10	7065	189.824693977491	0
10	7065	190.068922482194	1
10	7083	190.070894196912	0
10	7083	190.709832246178	1
10	7163	190.711803960896	0
10	7163	193.263629481891	1
10	7284	193.265601196609	0
10	7284	195.976445933334	1
10	7399	195.978417648052	0
10	7399	199.103938263444	1
10	7408	199.105909978162	0
10	7408	199.707182313544	1
10	7424	199.709154028262	0
11	0	0	0
11	42	0	0
11	42	1.280529175652	1
11	131	1.283608993842	0
11	131	3.655391985551	1
11	155	3.658471803741	0
11	155	4.199970380518	1
11	202	4.203050198708	0
11	202	5.789477091516	1
11	239	5.792556909706	0
11	239	6.554866582621	1
11	281	6.557946400811	0
11	281	7.72227695887	1
11	304	7.72535677706	0
11	304	8.226972440956	1
11	333	8.230052259146	0
11	333	9.303129776846	1
11	359	9.306209595036	0
11	359	10.02746944234	1
11	405	10.03054926053	0
11	405	11.603359731147	1
11	433	11.606439549337	0
11	433	12.424356974894	1
11	550	12.427436793084	0
11	550	15.004981726874	1
11	561	15.008061545064	0
11	561	15.13205281121	1
11	586	15.1351326294	0
11	586	15.523503520992	1
11	605	15.526583339182	0
11	605	16.073873579735	1
11	690	16.076953397925	0
11	690	18.080686910311	1
11	719	18.083766728501	0
11	719	19.117266118992	1
11	752	19.120345937182	0
11	752	19.552233999943	1
11	902	19.555313818133	0
11	902	23.824615896911	1
11	947	23.827695715101	0
11	947	25.109768807188	1
11	958	25.112848625378	0
11	958	25.185864297322	1
11	998	25.188944115512	0
11	998	26.488638546083	1
11	1020	26.491718364273	0
11	1020	27.133207742007	1
11	1180	27.136287560197	0
11	1180	30.996185399591	1
11	1236	30.999265217781	0
11	1236	32.086580797214	1
11	1252	32.089660615404	0
11	1252	32.588165163993	1
11	1373	32.591244982183	0
11	1373	35.446947053656	1
11	1411	35.450026871846	0
11	1411	36.106604768195	1
11	1452	36.109684586385	0
11	1452	37.18235592544	1
11	1528	37.18543574363	0
11	1528	39.418633391381	1
11	1546	39.421713209571	0
11	1546	40.170574382412	1
11	1589	40.173654200602	0
11	1589	41.247914811828	1
11	1616	41.250994630018	0
11	1616	41.989333430071	1
11	1677	41.992413248261	0
11	1677	43.42661779397	1
11	1823	43.42969761216	0
11	1823	47.363682805326	1
11	1854	47.366762623516	0
11	1854	48.029784951242	1
11	1861	48.032864769432	0
11	1861	48.270416147074	1
11	1892	48.273495965264	0
11	1892	49.035651335609	1
11	1899	49.038731153799	0
11	1899	49.048189820254	1
11	1919	49.051269638444	0
11	1919	49.878125473622	1
11	2027	49.881205291812	0
11	2027	53.041152190999	1
11	2059	53.044232009189	0
11	2059	53.727287697138	1
11	2095	53.730367515328	0
11	2095	54.637589256743	1
11	2205	54.640669074933	0
11	2205	57.359043797476	1
11	2230	57.362123615666	0
11	2230	58.179609119192	1
11	2286	58.182688937382	0
11	2286	59.649830922948	1
11	2342	59.652910741138	0
11	2342	60.836341334622	1
11	2360	60.839421152812	0
11	2360	61.40581135079	1
11	2409	61.40889116898	0
11	2409	62.678894904672	1
11	2440	62.681974722862	0
11	2440	63.347920307421	1
11	2501	63.351000125611	0
11	2501	65.22701886133	1
11	2583	65.23009867952	0
11	2583	67.546117747432	1
11	2624	67.549197565622	0
11	2624	68.894457899264	1
11	2661	68.897537717454	0
11	2661	70.25073408242	1
11	2775	70.25381390061	0
11	2775	72.765051762803	1
11	2804	72.768131580993	0
11	2804	73.814552336695	1
11	2843	73.817632154885	0
11	2843	74.740498287833	1
11	2896	74.743578106023	0
11	2896	76.121176408601	1
11	2971	76.124256226791	0
11	2971	78.331341789334	1
11	3034	78.334421607524	0
11	3034	79.974629634408	1
11	3055	79.977709452598	0
11	3055	80.664615716084	1
11	3115	80.667695534274	0
11	3115	82.201640991491	1
11	3411	82.204720809681	0
11	3411	91.093603251732	1
11	3499	91.096683069922	0
11	3499	93.407670959947	1
11	3534	93.410750778137	0
11	3534	94.243648505188	1
11	3572	94.246728323378	0
11	3572	95.089154164424	1
11	3649	95.092233982614	0
11	3649	97.254791811804	1
11	3686	97.257871629994	0
11	3686	97.850239705412	1
11	3700	97.853319523602	0
11	3700	98.269784721077	1
11	3755	98.272864539267	0
11	3755	99.272538211081	1
11	3808	99.275618029271	0
11	3808	101.034605818797	1
11	3868	101.037685636987	0
11	3868	102.559402548704	1
11	3976	102.562482366894	0
11	3976	105.449800636382	1
11	3991	105.452880454572	0
11	3991	105.638279312408	1
11	4057	105.641359130598	0
11	4057	107.701559316019	1
11	4064	107.704639134209	0
11	4064	107.918664189284	1
11	4086	107.921744007474	0
11	4086	108.943241256983	1
11	4197	108.946321075173	0
11	4197	111.933792924271	1
11	4230	111.936872742461	0
11	4230	112.570539378912	1
11	4386	112.573619197102	0
11	4386	117.224712905469	1
11	4417	117.227792723659	0
11	4417	117.860261337128	1
11	4459	117.863341155318	0
11	4459	119.009795560031	1
11	4509	119.012875378221	0
11	4509	120.1780137876	1
11	4594	120.18109360579	0
11	4594	122.093045185315	1
11	4616	122.096125003505	0
11	4616	122.709603800433	1
11	4681	122.712683618623	0