version 3
run Training-0-20251130-19:22:14-55640
attr configname Training
attr datetime 20251130-19:22:14
attr datetimef 20251130-192214
attr experiment Training
attr inifile omnetppNewML.ini
attr iterationvars ""
attr iterationvarsd ""
attr iterationvarsf ""
attr measurement ""
attr network modelingproject4sdn.simulations.NetSDN_ML
attr processid 55640
attr repetition 0
attr replication #0
attr resultdir results
attr runnumber 0
attr seedset 0
config description "Training phase - baseline (no ML routing, no energy awareness)"
config sim-time-limit 200s
config **.controller.enableMLRouting false
config **.controller.energyAwareRouting false
config **.controller.trainingThreshold 50
config **.device*.app.sendIaTime "uniform(1s, 3s)"
config network modelingproject4sdn.simulations.NetSDN_ML
config description "SDN Network with ML-based Smart Routing"
config sim-time-limit 300s
config **.vector-recording true
config **.scalar-recording true
config **.controller.discoveryInterval 5s
config **.controller.datasetFile "\"sdn_dataset.csv\""
config **.controller.enableMLRouting false
config **.controller.trainingThreshold 50
config **.controller.energyAwareRouting false
config **.controller.lowBatteryThreshold 20
config **.controller.batteryWeight 0.4
config **.controller.linkQualityWeight 0.3
config **.controller.distanceWeight 0.2
config **.controller.fairnessWeight 0.1
config **.device*.appType "\"App\""
config **.device*.app.destAddresses "\"1 2 3 4 5\""
config **.device*.app.sendIaTime "uniform(2s, 5s)"
config **.device*.app.packetLength "2048 bytes"
config **.device*.routing.sendDiscovery true
config **.device*.routing.discoveryInterval 10s
config **.frameCapacity 100
config **.useCutThroughSwitching false

vector 0 NetSDN_ML.sdn.controller topologyUpdated:vector ETV
attr recordingmode vector
attr title "topology update events"
vector 1 NetSDN_ML.sdn.controller mlPrediction:vector ETV
attr recordingmode vector
attr title "ML routing predictions"
vector 2 NetSDN_ML.device1.app endToEndDelay:vector ETV
attr interpolationmode none
attr recordingmode vector
attr title "end-to-end delay of arrived packets"
attr unit s
vector 3 NetSDN_ML.device2.app endToEndDelay:vector ETV
attr interpolationmode none
attr recordingmode vector
attr title "end-to-end delay of arrived packets"
attr unit s
vector 4 NetSDN_ML.device3.app endToEndDelay:vector ETV
attr interpolationmode none
attr recordingmode vector
attr title "end-to-end delay of arrived packets"
attr unit s
vector 5 NetSDN_ML.device4.app endToEndDelay:vector ETV
attr interpolationmode none
attr recordingmode vector
attr title "end-to-end delay of arrived packets"
attr unit s
vector 6 NetSDN_ML.device5.app endToEndDelay:vector ETV
attr interpolationmode none
attr recordingmode vector
attr title "end-to-end delay of arrived packets"
attr unit s
0	1	1	0
0	5924	6	5
0	11061	11	5
0	11228	16	5
0	11351	21	5
0	11504	26	5
0	11668	31	5
0	11830	36	5
0	11953	41	5
0	12088	46	5
0	12221	51	5
0	12388	56	5
0	12510	61	5
0	12664	66	5
0	12786	71	5
0	12918	76	5
0	13070	81	5
0	13224	86	5
0	13337	91	5
0	13473	96	5
0	13605	101	5
0	13778	106	5
0	13909	111	5
0	14041	116	5
0	14186	121	5
0	14353	126	5
0	14493	131	5
0	14626	136	5
0	14738	141	5
0	14901	146	5
0	15028	151	5
0	15201	156	5
0	15344	161	5
0	15478	166	5
0	15612	171	5
0	15745	176	5
0	15878	181	5
0	16030	186	5
0	16165	191	5
0	16329	196	5
2	61	1.310147390413	0.023440819411
2	956	2.524354985372	0.017369791322
2	2091	3.70693787663	0.024968914787
2	4179	5.072187687196	0.016970394105
2	6155	6.115364411786	0.017539061546
2	6214	6.141250588861	0.017896533874
2	7045	6.579978509053	0.023440819411
2	8356	7.266628313739	0.017896533874
2	11053	9.636164777477	0.015780417279
2	11152	13.107127543717	0.023440819411
2	11217	15.725946210503	0.023440819411
2	11254	16.832312362299	0.015780417279
2	11297	18.726610165018	0.017896533874
2	11323	19.277627189674	0.015780417279
2	11415	22.39946933363	0.017896533874
2	11468	24.451528178706	0.023440819411
2	11592	28.420739119437	0.015780417279
2	11610	29.133738684181	0.023440819411
2	11757	33.363343234569	0.017896533874
2	11905	39.042121863022	0.015780417279
2	12007	42.154490449029	0.015780417279
2	12080	44.901995060994	0.015780417279
2	12114	46.880257716116	0.023440819411
2	12130	47.059592153336	0.016970394105
2	12143	47.389905135542	0.017896533874
2	12283	52.060909725755	0.015780417279
2	12331	53.958216284326	0.016970394105
2	12359	54.815988907519	0.017896533874
2	12387	55.747830571786	0.023440819411
2	12572	62.483953175525	0.016970394105
2	12583	62.862877929763	0.023440819411
2	12599	63.287658796675	0.015780417279
2	12802	71.202521924789	0.017896533874
2	12934	76.307688326503	0.017896533874
2	12999	78.278200362839	0.015780417279
2	13124	82.45037597876	0.016970394105
2	13145	82.982670116882	0.023440819411
2	13203	85.330153754625	0.023440819411
2	13326	90.152391567288	0.017896533874
2	13426	93.421735393993	0.023440819411
2	13489	96.243702088195	0.023440819411
2	13567	99.102758452008	0.023440819411
2	13621	101.072056501566	0.017896533874
2	13678	102.787026818554	0.023440819411
2	13898	110.072689091352	0.015780417279
2	14003	114.002283074351	0.016970394105
2	14057	116.329290126379	0.017896533874
2	14120	118.139594684744	0.016970394105
2	14158	119.477420442195	0.016970394105
2	14210	121.338570077151	0.023440819411
2	14286	123.568340646491	0.016970394105
2	14314	124.64449659846	0.023440819411
2	14330	125.003920060148	0.015780417279
2	14562	133.048032512346	0.016970394105
2	14573	133.590157208529	0.015780417279
2	14684	138.572039445893	0.015780417279
2	14705	138.839796730961	0.023440819411
2	14927	146.745100042239	0.016970394105
2	14943	147.048214293264	0.023440819411
2	15023	150.813169361021	0.017896533874
2	15135	153.269859955824	0.023440819411
2	15163	154.3458753451	0.017896533874
2	15294	159.240484114448	0.023440819411
2	15433	163.525116693259	0.015780417279
2	15449	164.511145487823	0.017896533874
2	15477	165.742462349046	0.016970394105
2	15513	167.122435396925	0.016970394105
2	15532	167.550664697021	0.023440819411
2	15558	168.647508483302	0.016970394105
2	15569	168.678341107838	0.017896533874
2	15661	171.820923190277	0.023440819411
2	15677	172.649593183802	0.015780417279
2	15815	178.237932831693	0.023440819411
2	15992	184.602731427356	0.023440819411
2	16110	188.442986582119	0.023440819411
2	16276	193.976028648593	0.016970394105
2	16292	194.370408746343	0.017896533874
2	16318	195.442485785756	0.023440819411
2	16347	196.663998271733	0.017896533874
2	16358	196.756334864566	0.015780417279
2	16369	196.899478341166	0.023440819411
2	16406	198.400198791673	0.015780417279
3	5571	5.812264081074	0.027078582888
3	9664	7.95979643375	0.027723056677
5	742	2.307036072165	0.027194038183
5	1032	2.588880082377	0.027821731073
5	3475	4.70523222737	0.027194038183
5	7460	6.795900032069	0.026267898414

